 argument  1 = prop_caffeine.nw



============================== echo of input deck ==============================
echo
start prop_caffeine_run
title caffeine

memory heap 20 stack 1000 global 1000 mb

geometry
H      -3.3804130    -1.1272367     0.5733036
N       0.9668296    -1.0737425    -0.8198227
C       0.0567293     0.8527195     0.3923156
N      -1.3751742    -1.0212243    -0.0570552
C      -1.2615018     0.2590713     0.5234135
C      -0.3068337    -1.6836331    -0.7169344
C       1.1394235     0.1874122    -0.2700900
N       0.5602627     2.0839095     0.8251589
O      -0.4926797    -2.8180554    -1.2094732
C      -2.6328073    -1.7303959    -0.0060953
O      -2.2301338     0.7988624     1.0899730
H       2.5496990     2.9734977     0.6229590
C       2.0527432    -1.7360887    -1.4931279
H      -2.4807715    -2.7269528     0.4882631
H      -3.0089039    -1.9025254    -1.0498023
H       2.9176101    -1.8481516    -0.7857866
H       2.3787863    -1.1211917    -2.3743655
H       1.7189877    -2.7489920    -1.8439205
C      -0.1518450     3.0970046     1.5348347
C       1.8934096     2.1181245     0.4193193
N       2.2861252     0.9968439    -0.2440298
H      -0.1687028     4.0436553     0.9301094
H       0.3535322     3.2979060     2.5177747
H      -1.2074498     2.7537592     1.7203047
end

basis
 * library cc-pvdz
# * library aug-cc-pvtz
end
charge 0

task scf energy
task scf optimize
task scf freq

dft
 xc b3lyp
end

task dft energy
task dft optimize
task dft freq
================================================================================


                                         
                                         


              Northwest Computational Chemistry Package (NWChem) 6.5
              ------------------------------------------------------


                    Environmental Molecular Sciences Laboratory
                       Pacific Northwest National Laboratory
                                Richland, WA 99352

                              Copyright (c) 1994-2013
                       Pacific Northwest National Laboratory
                            Battelle Memorial Institute

             NWChem is an open-source computational chemistry package
                        distributed under the terms of the
                      Educational Community License (ECL) 2.0
             A copy of the license is included with this distribution
                              in the LICENSE.TXT file

                                  ACKNOWLEDGMENT
                                  --------------

            This software and its documentation were developed at the
            EMSL at Pacific Northwest National Laboratory, a multiprogram
            national laboratory, operated for the U.S. Department of Energy
            by Battelle under Contract Number DE-AC05-76RL01830. Support
            for this work was provided by the Department of Energy Office
            of Biological and Environmental Research, Office of Basic
            Energy Sciences, and the Office of Advanced Scientific Computing.


           Job information
           ---------------

    hostname        = fryslan
    program         = ../bin/LINUX64/nwchem
    date            = Tue Oct 13 08:27:18 2015

    compiled        = Mon_Sep_28_15:17:03_2015
    source          = /home/users/wadejong/Json/NWChem
    nwchem branch   = Development
    nwchem revision = 27327
    ga revision     = 10576
    input           = prop_caffeine.nw
    prefix          = prop_caffeine_run.
    data base       = ./prop_caffeine_run.db
    status          = startup
    nproc           =        1
    time left       =     -1s



           Memory information
           ------------------

    heap     =    2621434 doubles =     20.0 Mbytes
    stack    =  131071999 doubles =   1000.0 Mbytes
    global   =  131072000 doubles =   1000.0 Mbytes (distinct from heap & stack)
    total    =  264765433 doubles =   2020.0 Mbytes
    verify   = yes
    hardfail = no 


           Directory information
           ---------------------

  0 permanent = .
  0 scratch   = .




                                NWChem Input Module
                                -------------------


                                     caffeine
                                     --------

 Scaling coordinates for geometry "geometry" by  1.889725989
 (inverse scale =  0.529177249)

 C1  symmetry detected

          ------
          auto-z
          ------


                             Geometry "geometry" -> ""
                             -------------------------

 Output coordinates in angstroms (scale by  1.889725989 to convert to a.u.)

  No.       Tag          Charge          X              Y              Z
 ---- ---------------- ---------- -------------- -------------- --------------
    1 H                    1.0000    -3.15524297    -1.74914472     0.04338627
    2 N                    7.0000     1.34532617    -0.98386990     0.00580137
    3 C                    6.0000    -0.20849542     0.91203024     0.00146892
    4 N                    7.0000    -1.09542395    -1.31895685     0.00267360
    5 C                    6.0000    -1.38480395     0.06136213     0.00174279
    6 C                    6.0000     0.22260588    -1.84656525     0.00064096
    7 C                    6.0000     1.12408900     0.38490633     0.00239296
    8 N                    7.0000    -0.07830274     2.30478860     0.00003353
    9 O                    8.0000     0.39271715    -3.08555522    -0.00298840
   10 C                    6.0000    -2.17031655    -2.28422881    -0.00159554
   11 O                    8.0000    -2.55960197     0.47423208     0.00149776
   12 H                    1.0000     1.69943110     3.58141258    -0.00150447
   13 C                    6.0000     2.68438522    -1.51121501    -0.00307071
   14 H                    1.0000    -2.06508748    -2.96549848     0.88464893
   15 H                    1.0000    -2.11519364    -2.90284434    -0.93683765
   16 H                    1.0000     3.24199241    -1.12896841     0.89350406
   17 H                    1.0000     3.21432198    -1.17414234    -0.93394727
   18 H                    1.0000     2.64952923    -2.63301315     0.02477324
   19 C                    6.0000    -1.13664535     3.26238766    -0.00367536
   20 C                    6.0000     1.29157657     2.56283430    -0.00041079
   21 N                    7.0000     2.05451708     1.43613679     0.00108562
   22 H                    1.0000    -1.07028850     3.89803398    -0.92762068
   23 H                    1.0000    -1.05486397     3.92146412     0.90234261
   24 H                    1.0000    -2.12670788     2.72752597     0.01106191

      Atomic Mass 
      ----------- 

      H                  1.007825
      N                 14.003070
      C                 12.000000
      O                 15.994910


 Effective nuclear repulsion energy (a.u.)     917.0684472598

            Nuclear Dipole moment (a.u.) 
            ----------------------------
        X                 Y               Z
 ---------------- ---------------- ----------------
    -0.0000000000     0.0000000000     0.0000000000



                                Z-matrix (autoz)
                                -------- 

 Units are Angstrom for bonds and degrees for angles

      Type          Name      I     J     K     L     M      Value
      ----------- --------  ----- ----- ----- ----- ----- ----------
    1 Stretch                  1    10                       1.12179
    2 Stretch                  2     6                       1.41590
    3 Stretch                  2     7                       1.38654
    4 Stretch                  2    13                       1.43918
    5 Stretch                  3     5                       1.45167
    6 Stretch                  3     7                       1.43305
    7 Stretch                  3     8                       1.39883
    8 Stretch                  4     5                       1.41033
    9 Stretch                  4     6                       1.41971
   10 Stretch                  4    10                       1.44470
   11 Stretch                  5    11                       1.24524
   12 Stretch                  6     9                       1.25062
   13 Stretch                  7    21                       1.40385
   14 Stretch                  8    19                       1.42727
   15 Stretch                  8    20                       1.39397
   16 Stretch                 10    14                       1.12278
   17 Stretch                 10    15                       1.12268
   18 Stretch                 12    20                       1.09720
   19 Stretch                 13    16                       1.12289
   20 Stretch                 13    17                       1.12293
   21 Stretch                 13    18                       1.12268
   22 Stretch                 19    22                       1.12344
   23 Stretch                 19    23                       1.12336
   24 Stretch                 19    24                       1.12540
   25 Stretch                 20    21                       1.36071
   26 Bend                     1    10     4               109.53791
   27 Bend                     1    10    14               109.88057
   28 Bend                     1    10    15               109.83687
   29 Bend                     2     6     4               120.64455
   30 Bend                     2     6     9               119.72119
   31 Bend                     2     7     3               120.76341
   32 Bend                     2     7    21               129.30706
   33 Bend                     2    13    16               109.41318
   34 Bend                     2    13    17               109.52457
   35 Bend                     2    13    18               109.69969
   36 Bend                     3     5     4               114.03282
   37 Bend                     3     5    11               124.76330
   38 Bend                     3     7    21               109.92948
   39 Bend                     3     8    19               126.79874
   40 Bend                     3     8    20               106.00827
   41 Bend                     4     5    11               121.20389
   42 Bend                     4     6     9               119.63410
   43 Bend                     4    10    14               109.47212
   44 Bend                     4    10    15               109.51730
   45 Bend                     5     3     7               122.54473
   46 Bend                     5     3     8               131.21361
   47 Bend                     5     4     6               123.65657
   48 Bend                     5     4    10               120.08368
   49 Bend                     6     2     7               118.35631
   50 Bend                     6     2    13               120.96364
   51 Bend                     6     4    10               116.25893
   52 Bend                     7     2    13               120.67503
   53 Bend                     7     3     8               106.24166
   54 Bend                     7    21    20               104.38469
   55 Bend                     8    19    22               109.75221
   56 Bend                     8    19    23               109.72810
   57 Bend                     8    19    24               109.47776
   58 Bend                     8    20    12               122.48980
   59 Bend                     8    20    21               113.43590
   60 Bend                    12    20    21               124.07431
   61 Bend                    14    10    15               108.57867
   62 Bend                    16    13    17               108.98747
   63 Bend                    16    13    18               109.61869
   64 Bend                    17    13    18               109.58137
   65 Bend                    19     8    20               127.19281
   66 Bend                    22    19    23               109.08969
   67 Bend                    22    19    24               109.36824
   68 Bend                    23    19    24               109.40982
   69 Torsion                  1    10     4     5          -2.64049
   70 Torsion                  1    10     4     6         177.67629
   71 Torsion                  2     6     4     5           0.39137
   72 Torsion                  2     6     4    10        -179.93794
   73 Torsion                  2     7     3     5          -0.10552
   74 Torsion                  2     7     3     8         179.90856
   75 Torsion                  2     7    21    20        -179.91302
   76 Torsion                  3     5     4     6          -0.12876
   77 Torsion                  3     5     4    10        -179.78745
   78 Torsion                  3     7     2     6           0.35416
   79 Torsion                  3     7     2    13         179.54662
   80 Torsion                  3     7    21    20           0.00728
   81 Torsion                  3     8    19    22        -119.16386
   82 Torsion                  3     8    19    23         120.97305
   83 Torsion                  3     8    19    24           0.88649
   84 Torsion                  3     8    20    12         179.99985
   85 Torsion                  3     8    20    21          -0.02067
   86 Torsion                  4     5     3     7          -0.01414
   87 Torsion                  4     5     3     8         179.96790
   88 Torsion                  4     6     2     7          -0.49182
   89 Torsion                  4     6     2    13        -179.68185
   90 Torsion                  5     3     7    21         179.96625
   91 Torsion                  5     3     8    19          -0.10483
   92 Torsion                  5     3     8    20        -179.96074
   93 Torsion                  5     4     6     9        -179.75532
   94 Torsion                  5     4    10    14        -123.18433
   95 Torsion                  5     4    10    15         117.87769
   96 Torsion                  6     2     7    21        -179.73304
   97 Torsion                  6     2    13    16        -122.37709
   98 Torsion                  6     2    13    17         118.21738
   99 Torsion                  6     2    13    18          -2.09153
  100 Torsion                  6     4     5    11         179.88599
  101 Torsion                  6     4    10    14          57.13245
  102 Torsion                  6     4    10    15         -61.80553
  103 Torsion                  7     2     6     9         179.65499
  104 Torsion                  7     2    13    16          58.45165
  105 Torsion                  7     2    13    17         -60.95388
  106 Torsion                  7     2    13    18         178.73722
  107 Torsion                  7     3     5    11         179.97050
  108 Torsion                  7     3     8    19         179.87940
  109 Torsion                  7     3     8    20           0.02348
  110 Torsion                  7    21    20     8           0.00829
  111 Torsion                  7    21    20    12         179.98741
  112 Torsion                  8     3     5    11          -0.04746
  113 Torsion                  8     3     7    21          -0.01968
  114 Torsion                  9     6     2    13           0.46496
  115 Torsion                  9     6     4    10          -0.08463
  116 Torsion                 10     4     5    11           0.22730
  117 Torsion                 12    20     8    19           0.14468
  118 Torsion                 13     2     7    21          -0.54058
  119 Torsion                 19     8    20    21        -179.87583
  120 Torsion                 20     8    19    22          60.66228
  121 Torsion                 20     8    19    23         -59.20082
  122 Torsion                 20     8    19    24        -179.28737


            XYZ format geometry
            -------------------
    24
 geometry
 H                    -3.15524297    -1.74914472     0.04338627
 N                     1.34532617    -0.98386990     0.00580137
 C                    -0.20849542     0.91203024     0.00146892
 N                    -1.09542395    -1.31895685     0.00267360
 C                    -1.38480395     0.06136213     0.00174279
 C                     0.22260588    -1.84656525     0.00064096
 C                     1.12408900     0.38490633     0.00239296
 N                    -0.07830274     2.30478860     0.00003353
 O                     0.39271715    -3.08555522    -0.00298840
 C                    -2.17031655    -2.28422881    -0.00159554
 O                    -2.55960197     0.47423208     0.00149776
 H                     1.69943110     3.58141258    -0.00150447
 C                     2.68438522    -1.51121501    -0.00307071
 H                    -2.06508748    -2.96549848     0.88464893
 H                    -2.11519364    -2.90284434    -0.93683765
 H                     3.24199241    -1.12896841     0.89350406
 H                     3.21432198    -1.17414234    -0.93394727
 H                     2.64952923    -2.63301315     0.02477324
 C                    -1.13664535     3.26238766    -0.00367536
 C                     1.29157657     2.56283430    -0.00041079
 N                     2.05451708     1.43613679     0.00108562
 H                    -1.07028850     3.89803398    -0.92762068
 H                    -1.05486397     3.92146412     0.90234261
 H                    -2.12670788     2.72752597     0.01106191

 ==============================================================================
                                internuclear distances
 ------------------------------------------------------------------------------
       center one      |      center two      | atomic units |  angstroms
 ------------------------------------------------------------------------------
    5 C                |   3 C                |     2.74325  |     1.45167
    5 C                |   4 N                |     2.66513  |     1.41033
    6 C                |   2 N                |     2.67566  |     1.41590
    6 C                |   4 N                |     2.68286  |     1.41971
    7 C                |   2 N                |     2.62019  |     1.38654
    7 C                |   3 C                |     2.70808  |     1.43305
    8 N                |   3 C                |     2.64341  |     1.39883
    9 O                |   6 C                |     2.36333  |     1.25062
   10 C                |   1 H                |     2.11988  |     1.12179
   10 C                |   4 N                |     2.73009  |     1.44470
   11 O                |   5 C                |     2.35315  |     1.24524
   13 C                |   2 N                |     2.71966  |     1.43918
   14 H                |  10 C                |     2.12174  |     1.12278
   15 H                |  10 C                |     2.12155  |     1.12268
   16 H                |  13 C                |     2.12196  |     1.12289
   17 H                |  13 C                |     2.12204  |     1.12293
   18 H                |  13 C                |     2.12157  |     1.12268
   19 C                |   8 N                |     2.69715  |     1.42727
   20 C                |   8 N                |     2.63422  |     1.39397
   20 C                |  12 H                |     2.07341  |     1.09720
   21 N                |   7 C                |     2.65288  |     1.40385
   21 N                |  20 C                |     2.57137  |     1.36071
   22 H                |  19 C                |     2.12300  |     1.12344
   23 H                |  19 C                |     2.12284  |     1.12336
   24 H                |  19 C                |     2.12669  |     1.12540
 ------------------------------------------------------------------------------
                         number of included internuclear distances:         25
 ==============================================================================



 ==============================================================================
                                 internuclear angles
 ------------------------------------------------------------------------------
        center 1       |       center 2       |       center 3       |  degrees
 ------------------------------------------------------------------------------
    6 C                |   2 N                |   7 C                |   118.36
    6 C                |   2 N                |  13 C                |   120.96
    7 C                |   2 N                |  13 C                |   120.68
    5 C                |   3 C                |   7 C                |   122.54
    5 C                |   3 C                |   8 N                |   131.21
    7 C                |   3 C                |   8 N                |   106.24
    5 C                |   4 N                |   6 C                |   123.66
    5 C                |   4 N                |  10 C                |   120.08
    6 C                |   4 N                |  10 C                |   116.26
    3 C                |   5 C                |   4 N                |   114.03
    3 C                |   5 C                |  11 O                |   124.76
    4 N                |   5 C                |  11 O                |   121.20
    2 N                |   6 C                |   4 N                |   120.64
    2 N                |   6 C                |   9 O                |   119.72
    4 N                |   6 C                |   9 O                |   119.63
    2 N                |   7 C                |   3 C                |   120.76
    2 N                |   7 C                |  21 N                |   129.31
    3 C                |   7 C                |  21 N                |   109.93
    3 C                |   8 N                |  19 C                |   126.80
    3 C                |   8 N                |  20 C                |   106.01
   19 C                |   8 N                |  20 C                |   127.19
    1 H                |  10 C                |   4 N                |   109.54
    1 H                |  10 C                |  14 H                |   109.88
    1 H                |  10 C                |  15 H                |   109.84
    4 N                |  10 C                |  14 H                |   109.47
    4 N                |  10 C                |  15 H                |   109.52
   14 H                |  10 C                |  15 H                |   108.58
    2 N                |  13 C                |  16 H                |   109.41
    2 N                |  13 C                |  17 H                |   109.52
    2 N                |  13 C                |  18 H                |   109.70
   16 H                |  13 C                |  17 H                |   108.99
   16 H                |  13 C                |  18 H                |   109.62
   17 H                |  13 C                |  18 H                |   109.58
    8 N                |  19 C                |  22 H                |   109.75
    8 N                |  19 C                |  23 H                |   109.73
    8 N                |  19 C                |  24 H                |   109.48
   22 H                |  19 C                |  23 H                |   109.09
   22 H                |  19 C                |  24 H                |   109.37
   23 H                |  19 C                |  24 H                |   109.41
    8 N                |  20 C                |  12 H                |   122.49
    8 N                |  20 C                |  21 N                |   113.44
   12 H                |  20 C                |  21 N                |   124.07
    7 C                |  21 N                |  20 C                |   104.38
 ------------------------------------------------------------------------------
                            number of included internuclear angles:         43
 ==============================================================================





 Summary of "ao basis" -> "" (cartesian)
 ------------------------------------------------------------------------------
       Tag                 Description            Shells   Functions and Types
 ---------------- ------------------------------  ------  ---------------------
 *                          cc-pvdz                   on all atoms 


                      Basis "ao basis" -> "ao basis" (cartesian)
                      -----
  H (Hydrogen)
  ------------
            Exponent  Coefficients 
       -------------- ---------------------------------------------------------
  1 S  1.30100000E+01  0.019685
  1 S  1.96200000E+00  0.137977
  1 S  4.44600000E-01  0.478148

  2 S  1.22000000E-01  1.000000

  3 P  7.27000000E-01  1.000000

  N (Nitrogen)
  ------------
            Exponent  Coefficients 
       -------------- ---------------------------------------------------------
  1 S  9.04600000E+03  0.000700
  1 S  1.35700000E+03  0.005389
  1 S  3.09300000E+02  0.027406
  1 S  8.77300000E+01  0.103207
  1 S  2.85600000E+01  0.278723
  1 S  1.02100000E+01  0.448540
  1 S  3.83800000E+00  0.278238
  1 S  7.46600000E-01  0.015440

  2 S  9.04600000E+03 -0.000153
  2 S  1.35700000E+03 -0.001208
  2 S  3.09300000E+02 -0.005992
  2 S  8.77300000E+01 -0.024544
  2 S  2.85600000E+01 -0.067459
  2 S  1.02100000E+01 -0.158078
  2 S  3.83800000E+00 -0.121831
  2 S  7.46600000E-01  0.549003

  3 S  2.24800000E-01  1.000000

  4 P  1.35500000E+01  0.039919
  4 P  2.91700000E+00  0.217169
  4 P  7.97300000E-01  0.510319

  5 P  2.18500000E-01  1.000000

  6 D  8.17000000E-01  1.000000

  C (Carbon)
  ----------
            Exponent  Coefficients 
       -------------- ---------------------------------------------------------
  1 S  6.66500000E+03  0.000692
  1 S  1.00000000E+03  0.005329
  1 S  2.28000000E+02  0.027077
  1 S  6.47100000E+01  0.101718
  1 S  2.10600000E+01  0.274740
  1 S  7.49500000E+00  0.448564
  1 S  2.79700000E+00  0.285074
  1 S  5.21500000E-01  0.015204

  2 S  6.66500000E+03 -0.000146
  2 S  1.00000000E+03 -0.001154
  2 S  2.28000000E+02 -0.005725
  2 S  6.47100000E+01 -0.023312
  2 S  2.10600000E+01 -0.063955
  2 S  7.49500000E+00 -0.149981
  2 S  2.79700000E+00 -0.127262
  2 S  5.21500000E-01  0.544529

  3 S  1.59600000E-01  1.000000

  4 P  9.43900000E+00  0.038109
  4 P  2.00200000E+00  0.209480
  4 P  5.45600000E-01  0.508557

  5 P  1.51700000E-01  1.000000

  6 D  5.50000000E-01  1.000000

  O (Oxygen)
  ----------
            Exponent  Coefficients 
       -------------- ---------------------------------------------------------
  1 S  1.17200000E+04  0.000710
  1 S  1.75900000E+03  0.005470
  1 S  4.00800000E+02  0.027837
  1 S  1.13700000E+02  0.104800
  1 S  3.70300000E+01  0.283062
  1 S  1.32700000E+01  0.448719
  1 S  5.02500000E+00  0.270952
  1 S  1.01300000E+00  0.015458

  2 S  1.17200000E+04 -0.000160
  2 S  1.75900000E+03 -0.001263
  2 S  4.00800000E+02 -0.006267
  2 S  1.13700000E+02 -0.025716
  2 S  3.70300000E+01 -0.070924
  2 S  1.32700000E+01 -0.165411
  2 S  5.02500000E+00 -0.116955
  2 S  1.01300000E+00  0.557368

  3 S  3.02300000E-01  1.000000

  4 P  1.77000000E+01  0.043018
  4 P  3.85400000E+00  0.228913
  4 P  1.04600000E+00  0.508728

  5 P  2.75300000E-01  1.000000

  6 D  1.18500000E+00  1.000000



 Summary of "ao basis" -> "ao basis" (cartesian)
 ------------------------------------------------------------------------------
       Tag                 Description            Shells   Functions and Types
 ---------------- ------------------------------  ------  ---------------------
 H                          cc-pvdz                  3        5   2s1p
 N                          cc-pvdz                  6       15   3s2p1d
 C                          cc-pvdz                  6       15   3s2p1d
 O                          cc-pvdz                  6       15   3s2p1d


                                 NWChem SCF Module
                                 -----------------


                                     caffeine



  ao basis        = "ao basis"
  functions       =   260
  atoms           =    24
  closed shells   =    51
  open shells     =     0
  charge          =   0.00
  wavefunction    = RHF 
  input vectors   = atomic
  output vectors  = ./prop_caffeine_run.movecs
  use symmetry    = F
  symmetry adapt  = F


 Summary of "ao basis" -> "ao basis" (cartesian)
 ------------------------------------------------------------------------------
       Tag                 Description            Shells   Functions and Types
 ---------------- ------------------------------  ------  ---------------------
 H                          cc-pvdz                  3        5   2s1p
 N                          cc-pvdz                  6       15   3s2p1d
 C                          cc-pvdz                  6       15   3s2p1d
 O                          cc-pvdz                  6       15   3s2p1d



 Forming initial guess at       0.3s


      Superposition of Atomic Density Guess
      -------------------------------------

 Sum of atomic energies:        -673.04939366

      Non-variational initial energy
      ------------------------------

 Total energy =    -681.603603
 1-e energy   =   -2737.280505
 2-e energy   =    1138.608454
 HOMO         =      -0.192658
 LUMO         =       0.002910


 Starting SCF solution at       8.1s



 ----------------------------------------------
         Quadratically convergent ROHF

 Convergence threshold     :          1.000E-04
 Maximum no. of iterations :           30
 Final Fock-matrix accuracy:          1.000E-07
 ----------------------------------------------


 Integral file          = ./prop_caffeine_run.aoints.0
 Record size in doubles =    65536    No. of integs per rec  =    32766
 Max. records in memory =        0    Max. records in file   =  1625238
 No. of bits per label  =       16    No. of bits per value  =       64


 #quartets = 1.122D+07 #integrals = 2.057D+08 #direct =  0.0% #cached =100.0%


              iter       energy          gnorm     gmax       time
             ----- ------------------- --------- --------- --------
                 1     -676.0213791823  2.27D+00  2.54D-01     43.7
                 2     -676.3020827308  7.60D-01  6.71D-02     47.7
                 3     -676.3570537082  6.83D-02  1.48D-02     53.0
                 4     -676.3578369070  1.75D-03  2.29D-04     61.8
                 5     -676.3578374412  9.20D-06  2.68D-06     74.5


       Final RHF  results 
       ------------------ 

         Total SCF energy =   -676.357837441209
      One-electron energy =  -2742.674872790898
      Two-electron energy =   1149.248588089851
 Nuclear repulsion energy =    917.068447259839

        Time for solution =     66.6s


             Final eigenvalues
             -----------------

              1      
    1  -20.5368
    2  -20.5344
    3  -15.6584
    4  -15.6390
    5  -15.6353
    6  -15.5901
    7  -11.4183
    8  -11.3898
    9  -11.3512
   10  -11.3474
   11  -11.2994
   12  -11.2875
   13  -11.2847
   14  -11.2755
   15   -1.4106
   16   -1.3789
   17   -1.3551
   18   -1.2863
   19   -1.2526
   20   -1.1979
   21   -1.0582
   22   -0.9790
   23   -0.9736
   24   -0.9535
   25   -0.8755
   26   -0.8563
   27   -0.8083
   28   -0.7710
   29   -0.7146
   30   -0.6843
   31   -0.6822
   32   -0.6575
   33   -0.6497
   34   -0.6400
   35   -0.6246
   36   -0.6222
   37   -0.6116
   38   -0.5932
   39   -0.5705
   40   -0.5627
   41   -0.5444
   42   -0.5383
   43   -0.5341
   44   -0.5322
   45   -0.4725
   46   -0.4571
   47   -0.4515
   48   -0.4321
   49   -0.4057
   50   -0.3946
   51   -0.3085
   52    0.0913
   53    0.1697
   54    0.1718
   55    0.1755
   56    0.1988
   57    0.2058
   58    0.2123
   59    0.2534
   60    0.2602
   61    0.2617

                       ROHF Final Molecular Orbital Analysis
                       -------------------------------------

 Vector   15  Occ=2.000000D+00  E=-1.410614D+00
              MO Center= -2.5D-01, -1.4D+00,  4.7D-04, r^2= 3.5D+00
   Bfn.  Coefficient  Atom+Function         Bfn.  Coefficient  Atom+Function  
  ----- ------------  ---------------      ----- ------------  ---------------
   112      0.242521   9 O  s               113      0.226907   9 O  s         
    67      0.219787   6 C  s                37      0.163607   4 N  s         
   142      0.155436  11 O  s         

 Vector   16  Occ=2.000000D+00  E=-1.378905D+00
              MO Center= -1.3D+00, -5.0D-01,  6.9D-04, r^2= 4.2D+00
   Bfn.  Coefficient  Atom+Function         Bfn.  Coefficient  Atom+Function  
  ----- ------------  ---------------      ----- ------------  ---------------
   142      0.308564  11 O  s               143      0.304867  11 O  s         
   112     -0.204198   9 O  s               113     -0.204344   9 O  s         
    52      0.190956   5 C  s         

 Vector   17  Occ=2.000000D+00  E=-1.355100D+00
              MO Center=  3.6D-01,  1.6D+00,  4.8D-04, r^2= 2.9D+00
   Bfn.  Coefficient  Atom+Function         Bfn.  Coefficient  Atom+Function  
  ----- ------------  ---------------      ----- ------------  ---------------
    97      0.268280   8 N  s                98      0.255249   8 N  s         
   217      0.172842  20 C  s               232      0.161140  21 N  s         

 Vector   18  Occ=2.000000D+00  E=-1.286290D+00
              MO Center=  8.3D-01, -8.3D-01,  1.5D-03, r^2= 3.7D+00
   Bfn.  Coefficient  Atom+Function         Bfn.  Coefficient  Atom+Function  
  ----- ------------  ---------------      ----- ------------  ---------------
     8      0.292747   2 N  s                 7      0.288141   2 N  s         
   113     -0.218857   9 O  s               112     -0.213222   9 O  s         
    70      0.168325   6 C  py        

 Vector   19  Occ=2.000000D+00  E=-1.252605D+00
              MO Center= -8.9D-01, -1.1D+00,  1.4D-03, r^2= 2.7D+00
   Bfn.  Coefficient  Atom+Function         Bfn.  Coefficient  Atom+Function  
  ----- ------------  ---------------      ----- ------------  ---------------
    38      0.338804   4 N  s                37      0.325369   4 N  s         
   143     -0.177758  11 O  s               142     -0.168044  11 O  s         

 Vector   20  Occ=2.000000D+00  E=-1.197887D+00
              MO Center=  9.9D-01,  1.5D+00,  4.9D-04, r^2= 3.1D+00
   Bfn.  Coefficient  Atom+Function         Bfn.  Coefficient  Atom+Function  
  ----- ------------  ---------------      ----- ------------  ---------------
   232      0.292694  21 N  s               233      0.278830  21 N  s         
    98     -0.207583   8 N  s                97     -0.202017   8 N  s         

 Vector   21  Occ=2.000000D+00  E=-1.058231D+00
              MO Center=  7.8D-02,  5.6D-01,  8.3D-04, r^2= 4.5D+00
   Bfn.  Coefficient  Atom+Function         Bfn.  Coefficient  Atom+Function  
  ----- ------------  ---------------      ----- ------------  ---------------
    22      0.265902   3 C  s                23      0.172253   3 C  s         

 Vector   22  Occ=2.000000D+00  E=-9.790153D-01
              MO Center=  2.4D-01,  9.0D-01, -1.4D-03, r^2= 8.6D+00
   Bfn.  Coefficient  Atom+Function         Bfn.  Coefficient  Atom+Function  
  ----- ------------  ---------------      ----- ------------  ---------------
   202      0.246449  19 C  s               162     -0.199637  13 C  s         

 Vector   23  Occ=2.000000D+00  E=-9.735608D-01
              MO Center=  2.2D-02,  1.9D-01,  1.1D-04, r^2= 7.7D+00
   Bfn.  Coefficient  Atom+Function         Bfn.  Coefficient  Atom+Function  
  ----- ------------  ---------------      ----- ------------  ---------------
   217      0.183366  20 C  s               127     -0.174937  10 C  s         
    67      0.161284   6 C  s                99      0.153605   8 N  px        
   202     -0.152299  19 C  s         

 Vector   24  Occ=2.000000D+00  E=-9.535023D-01
              MO Center=  3.3D-03, -7.9D-01, -7.9D-05, r^2= 6.9D+00
   Bfn.  Coefficient  Atom+Function         Bfn.  Coefficient  Atom+Function  
  ----- ------------  ---------------      ----- ------------  ---------------
   162     -0.203536  13 C  s               127      0.195213  10 C  s         
    40     -0.173956   4 N  py               52     -0.173080   5 C  s         

 Vector   25  Occ=2.000000D+00  E=-8.755270D-01
              MO Center=  6.6D-02, -2.1D-03,  8.4D-04, r^2= 6.4D+00
   Bfn.  Coefficient  Atom+Function         Bfn.  Coefficient  Atom+Function  
  ----- ------------  ---------------      ----- ------------  ---------------
    39      0.179640   4 N  px               67      0.170114   6 C  s         
    40     -0.167061   4 N  py              217     -0.161123  20 C  s         
    52     -0.154125   5 C  s         

 Vector   26  Occ=2.000000D+00  E=-8.563367D-01
              MO Center= -4.6D-03, -3.2D-01,  8.8D-04, r^2= 6.2D+00
   Bfn.  Coefficient  Atom+Function         Bfn.  Coefficient  Atom+Function  
  ----- ------------  ---------------      ----- ------------  ---------------
    10      0.218371   2 N  py               69     -0.167544   6 C  px        
   127     -0.162324  10 C  s                82      0.152420   7 C  s         
   219     -0.150682  20 C  px        

 Vector   27  Occ=2.000000D+00  E=-8.082593D-01
              MO Center=  2.6D-01,  4.1D-01,  6.2D-04, r^2= 6.9D+00
   Bfn.  Coefficient  Atom+Function         Bfn.  Coefficient  Atom+Function  
  ----- ------------  ---------------      ----- ------------  ---------------
    69     -0.184590   6 C  px              156      0.171060  12 H  s         
    55      0.169632   5 C  py               40     -0.162200   4 N  py        

 Vector   28  Occ=2.000000D+00  E=-7.710297D-01
              MO Center=  1.3D-01,  7.9D-01,  8.9D-04, r^2= 5.7D+00
   Bfn.  Coefficient  Atom+Function         Bfn.  Coefficient  Atom+Function  
  ----- ------------  ---------------      ----- ------------  ---------------
    24      0.246162   3 C  px               84     -0.180448   7 C  px        
    85      0.161097   7 C  py               55     -0.157088   5 C  py        
    99      0.152330   8 N  px        

 Vector   29  Occ=2.000000D+00  E=-7.145876D-01
              MO Center= -6.3D-03,  7.5D-01, -7.3D-04, r^2= 7.4D+00
   Bfn.  Coefficient  Atom+Function         Bfn.  Coefficient  Atom+Function  
  ----- ------------  ---------------      ----- ------------  ---------------
   100      0.257538   8 N  py              235     -0.199739  21 N  py        
   219     -0.172308  20 C  px              204      0.166650  19 C  px        
   103      0.164657   8 N  py               25     -0.159807   3 C  py        

 Vector   30  Occ=2.000000D+00  E=-6.843399D-01
              MO Center=  2.5D-01,  5.2D-01, -4.0D-04, r^2= 8.5D+00
   Bfn.  Coefficient  Atom+Function         Bfn.  Coefficient  Atom+Function  
  ----- ------------  ---------------      ----- ------------  ---------------
    99      0.231743   8 N  px                9      0.191758   2 N  px        
   219     -0.173970  20 C  px              164     -0.171274  13 C  px        
   144      0.168056  11 O  px              205      0.168051  19 C  py        

 Vector   31  Occ=2.000000D+00  E=-6.821660D-01
              MO Center=  1.7D-01, -2.7D-01, -1.7D-03, r^2= 5.8D+00
   Bfn.  Coefficient  Atom+Function         Bfn.  Coefficient  Atom+Function  
  ----- ------------  ---------------      ----- ------------  ---------------
    11      0.229842   2 N  pz               41      0.207068   4 N  pz        
    71      0.173039   6 C  pz              101      0.171740   8 N  pz        
    14      0.157139   2 N  pz        

 Vector   32  Occ=2.000000D+00  E=-6.574739D-01
              MO Center=  2.0D-01, -8.7D-02, -5.8D-04, r^2= 9.4D+00
   Bfn.  Coefficient  Atom+Function         Bfn.  Coefficient  Atom+Function  
  ----- ------------  ---------------      ----- ------------  ---------------
   220      0.256393  20 C  py              115      0.241233   9 O  py        
   156      0.219884  12 H  s                70     -0.174315   6 C  py        
    39     -0.169773   4 N  px              113     -0.167819   9 O  s         

 Vector   33  Occ=2.000000D+00  E=-6.497350D-01
              MO Center= -3.3D-01,  1.5D+00, -6.8D-03, r^2= 7.0D+00
   Bfn.  Coefficient  Atom+Function         Bfn.  Coefficient  Atom+Function  
  ----- ------------  ---------------      ----- ------------  ---------------
   101      0.283582   8 N  pz              206      0.267361  19 C  pz        
   104      0.196135   8 N  pz              246     -0.174928  22 H  s         
   251      0.173047  23 H  s         

 Vector   34  Occ=2.000000D+00  E=-6.399587D-01
              MO Center= -7.1D-01, -4.1D-02, -3.8D-04, r^2= 6.9D+00
   Bfn.  Coefficient  Atom+Function         Bfn.  Coefficient  Atom+Function  
  ----- ------------  ---------------      ----- ------------  ---------------
   144      0.344637  11 O  px               54     -0.274587   5 C  px        
   143     -0.236051  11 O  s               147      0.212136  11 O  px        
   164      0.201756  13 C  px                9     -0.194698   2 N  px        

 Vector   35  Occ=2.000000D+00  E=-6.246322D-01
              MO Center= -3.4D-01, -1.6D+00,  2.3D-03, r^2= 6.5D+00
   Bfn.  Coefficient  Atom+Function         Bfn.  Coefficient  Atom+Function  
  ----- ------------  ---------------      ----- ------------  ---------------
   115      0.294551   9 O  py              129     -0.208285  10 C  px        
    40      0.199807   4 N  py               70     -0.197500   6 C  py        
   118      0.183478   9 O  py              113     -0.176218   9 O  s         
    55     -0.151934   5 C  py        

 Vector   36  Occ=2.000000D+00  E=-6.221794D-01
              MO Center=  3.8D-01, -1.3D+00, -1.2D-02, r^2= 6.4D+00
   Bfn.  Coefficient  Atom+Function         Bfn.  Coefficient  Atom+Function  
  ----- ------------  ---------------      ----- ------------  ---------------
   166      0.254066  13 C  pz               11      0.226856   2 N  pz        
    41     -0.224228   4 N  pz              131     -0.214148  10 C  pz        
   191     -0.168288  17 H  s               186      0.166291  16 H  s         
    14      0.159714   2 N  pz               44     -0.156697   4 N  pz        

 Vector   37  Occ=2.000000D+00  E=-6.116216D-01
              MO Center=  5.6D-01,  9.8D-01,  3.9D-04, r^2= 7.5D+00
   Bfn.  Coefficient  Atom+Function         Bfn.  Coefficient  Atom+Function  
  ----- ------------  ---------------      ----- ------------  ---------------
   220      0.271744  20 C  py              235     -0.253504  21 N  py        
   156      0.213400  12 H  s               115     -0.195787   9 O  py        
    70      0.186948   6 C  py              100     -0.179287   8 N  py        
   204     -0.172510  19 C  px               84      0.169337   7 C  px        
    25      0.160687   3 C  py        

 Vector   38  Occ=2.000000D+00  E=-5.931592D-01
              MO Center= -4.5D-01,  5.5D-03,  2.0D-03, r^2= 7.0D+00
   Bfn.  Coefficient  Atom+Function         Bfn.  Coefficient  Atom+Function  
  ----- ------------  ---------------      ----- ------------  ---------------
   145      0.205836  11 O  py               54      0.199725   5 C  px        
    24     -0.185952   3 C  px                9     -0.167621   2 N  px        
    39     -0.164957   4 N  px               99      0.164316   8 N  px        
   164      0.165058  13 C  px              130      0.154752  10 C  py        

 Vector   39  Occ=2.000000D+00  E=-5.704551D-01
              MO Center= -8.1D-01,  2.3D+00,  9.0D-03, r^2= 5.9D+00
   Bfn.  Coefficient  Atom+Function         Bfn.  Coefficient  Atom+Function  
  ----- ------------  ---------------      ----- ------------  ---------------
   205      0.314393  19 C  py              256     -0.280716  24 H  s         
   204      0.194389  19 C  px              251      0.174195  23 H  s         
   246      0.162608  22 H  s               208      0.155461  19 C  py        
    23      0.153799   3 C  s         

 Vector   40  Occ=2.000000D+00  E=-5.627205D-01
              MO Center= -3.5D-01,  1.3D+00, -1.2D-02, r^2= 8.1D+00
   Bfn.  Coefficient  Atom+Function         Bfn.  Coefficient  Atom+Function  
  ----- ------------  ---------------      ----- ------------  ---------------
   206      0.265460  19 C  pz              246     -0.202680  22 H  s         
   251      0.195860  23 H  s                26     -0.164033   3 C  pz        
   146     -0.159066  11 O  pz              236     -0.158890  21 N  pz        

 Vector   41  Occ=2.000000D+00  E=-5.443870D-01
              MO Center=  2.1D+00, -1.4D+00,  1.6D-02, r^2= 4.2D+00
   Bfn.  Coefficient  Atom+Function         Bfn.  Coefficient  Atom+Function  
  ----- ------------  ---------------      ----- ------------  ---------------
   165      0.370648  13 C  py              196     -0.330070  18 H  s         
   168      0.194844  13 C  py              186      0.166333  16 H  s         
    10     -0.153122   2 N  py        

 Vector   42  Occ=2.000000D+00  E=-5.382519D-01
              MO Center= -2.0D+00, -1.9D+00,  3.4D-03, r^2= 3.4D+00
   Bfn.  Coefficient  Atom+Function         Bfn.  Coefficient  Atom+Function  
  ----- ------------  ---------------      ----- ------------  ---------------
     1      0.334444   1 H  s               130      0.295475  10 C  py        
   129     -0.270014  10 C  px              176     -0.172026  14 H  s         
   181     -0.166612  15 H  s         

 Vector   43  Occ=2.000000D+00  E=-5.341370D-01
              MO Center=  5.0D-01, -2.0D+00,  9.8D-03, r^2= 5.5D+00
   Bfn.  Coefficient  Atom+Function         Bfn.  Coefficient  Atom+Function  
  ----- ------------  ---------------      ----- ------------  ---------------
   116      0.318302   9 O  pz               71      0.252428   6 C  pz        
   166     -0.229556  13 C  pz              119      0.221252   9 O  pz        
   131     -0.181378  10 C  pz              191      0.177259  17 H  s         
   186     -0.173401  16 H  s                74      0.157855   6 C  pz        

 Vector   44  Occ=2.000000D+00  E=-5.321844D-01
              MO Center= -1.2D+00,  3.9D-02, -1.5D-02, r^2= 6.9D+00
   Bfn.  Coefficient  Atom+Function         Bfn.  Coefficient  Atom+Function  
  ----- ------------  ---------------      ----- ------------  ---------------
   146      0.325871  11 O  pz               56      0.232240   5 C  pz        
   149      0.229382  11 O  pz              131     -0.219867  10 C  pz        
   181      0.172606  15 H  s               236     -0.164274  21 N  pz        
   176     -0.154690  14 H  s         

 Vector   45  Occ=2.000000D+00  E=-4.725302D-01
              MO Center=  5.9D-01,  5.0D-01,  1.1D-03, r^2= 7.6D+00
   Bfn.  Coefficient  Atom+Function         Bfn.  Coefficient  Atom+Function  
  ----- ------------  ---------------      ----- ------------  ---------------
   234      0.355751  21 N  px              237      0.281496  21 N  px        
   114     -0.254471   9 O  px              145     -0.245346  11 O  py        
   233      0.198990  21 N  s               117     -0.186201   9 O  px        
   148     -0.181840  11 O  py               23      0.160779   3 C  s         

 Vector   46  Occ=2.000000D+00  E=-4.571361D-01
              MO Center=  6.8D-01, -9.7D-01, -6.8D-04, r^2= 6.7D+00
   Bfn.  Coefficient  Atom+Function         Bfn.  Coefficient  Atom+Function  
  ----- ------------  ---------------      ----- ------------  ---------------
   114      0.419786   9 O  px              117      0.313159   9 O  px        
   234      0.295296  21 N  px              237      0.239694  21 N  px        
    84     -0.156176   7 C  px               24      0.152909   3 C  px        

 Vector   47  Occ=2.000000D+00  E=-4.515453D-01
              MO Center=  9.0D-01, -3.5D-01, -3.1D-03, r^2= 6.8D+00
   Bfn.  Coefficient  Atom+Function         Bfn.  Coefficient  Atom+Function  
  ----- ------------  ---------------      ----- ------------  ---------------
    11      0.306226   2 N  pz              116     -0.275414   9 O  pz        
    14      0.262679   2 N  pz              101     -0.243028   8 N  pz        
   119     -0.212364   9 O  pz              104     -0.204611   8 N  pz        
    86      0.197239   7 C  pz              166     -0.158014  13 C  pz        

 Vector   48  Occ=2.000000D+00  E=-4.321089D-01
              MO Center= -1.3D+00, -3.8D-01,  7.1D-04, r^2= 5.6D+00
   Bfn.  Coefficient  Atom+Function         Bfn.  Coefficient  Atom+Function  
  ----- ------------  ---------------      ----- ------------  ---------------
   145      0.448527  11 O  py              148      0.339751  11 O  py        
   114     -0.307216   9 O  px              117     -0.227807   9 O  px        
   144      0.166507  11 O  px               40      0.157649   4 N  py        
    24      0.153118   3 C  px        

 Vector   49  Occ=2.000000D+00  E=-4.056818D-01
              MO Center= -1.1D+00, -1.0D+00, -3.6D-03, r^2= 4.8D+00
   Bfn.  Coefficient  Atom+Function         Bfn.  Coefficient  Atom+Function  
  ----- ------------  ---------------      ----- ------------  ---------------
    41      0.385341   4 N  pz               44      0.359919   4 N  pz        
   146     -0.313373  11 O  pz              149     -0.254321  11 O  pz        
   116     -0.251762   9 O  pz              119     -0.206220   9 O  pz        

 Vector   50  Occ=2.000000D+00  E=-3.945930D-01
              MO Center=  7.9D-01,  1.0D+00, -1.9D-03, r^2= 5.1D+00
   Bfn.  Coefficient  Atom+Function         Bfn.  Coefficient  Atom+Function  
  ----- ------------  ---------------      ----- ------------  ---------------
   236      0.359466  21 N  pz              239      0.293681  21 N  pz        
   101     -0.252901   8 N  pz              104     -0.220393   8 N  pz        
    41      0.204772   4 N  pz               11     -0.187863   2 N  pz        
    26     -0.185716   3 C  pz               44      0.183856   4 N  pz        
    14     -0.170324   2 N  pz               29     -0.154946   3 C  pz        

 Vector   51  Occ=2.000000D+00  E=-3.085040D-01
              MO Center=  3.3D-01,  5.9D-01,  5.2D-04, r^2= 4.5D+00
   Bfn.  Coefficient  Atom+Function         Bfn.  Coefficient  Atom+Function  
  ----- ------------  ---------------      ----- ------------  ---------------
    26      0.343908   3 C  pz               29      0.320951   3 C  pz        
    11     -0.252963   2 N  pz               14     -0.253808   2 N  pz        
    86      0.230169   7 C  pz              221     -0.225318  20 C  pz        
   224     -0.202215  20 C  pz              104     -0.190285   8 N  pz        
   101     -0.186422   8 N  pz               89      0.182478   7 C  pz        

 Vector   52  Occ=0.000000D+00  E= 9.125862D-02
              MO Center=  9.6D-02,  1.2D+00, -1.6D-03, r^2= 5.2D+00
   Bfn.  Coefficient  Atom+Function         Bfn.  Coefficient  Atom+Function  
  ----- ------------  ---------------      ----- ------------  ---------------
   224      0.447029  20 C  pz               89     -0.339572   7 C  pz        
   104     -0.335255   8 N  pz              221      0.302980  20 C  pz        
    59      0.291269   5 C  pz               56      0.267717   5 C  pz        
   247     -0.263030  22 H  s               252      0.261043  23 H  s         
    29      0.250893   3 C  pz               86     -0.243428   7 C  pz        

 Vector   53  Occ=0.000000D+00  E= 1.697040D-01
              MO Center=  5.8D-01, -1.9D-01,  1.4D-02, r^2= 6.5D+00
   Bfn.  Coefficient  Atom+Function         Bfn.  Coefficient  Atom+Function  
  ----- ------------  ---------------      ----- ------------  ---------------
    74      0.476715   6 C  pz               89     -0.421618   7 C  pz        
   239      0.412642  21 N  pz              252     -0.393580  23 H  s         
    71      0.370889   6 C  pz              119     -0.313165   9 O  pz        
   224     -0.306602  20 C  pz              247      0.288909  22 H  s         
   209      0.285599  19 C  pz               29      0.273396   3 C  pz        

 Vector   54  Occ=0.000000D+00  E= 1.717760D-01
              MO Center= -1.2D-01,  4.0D+00, -2.1D-02, r^2= 5.4D+00
   Bfn.  Coefficient  Atom+Function         Bfn.  Coefficient  Atom+Function  
  ----- ------------  ---------------      ----- ------------  ---------------
   203      1.776772  19 C  s               157     -1.341725  12 H  s         
   247     -1.023267  22 H  s               252     -1.003061  23 H  s         
   223      0.771707  20 C  py              218      0.584532  20 C  s         
   208      0.441306  19 C  py              222      0.430062  20 C  px        
   257     -0.324015  24 H  s                98      0.269995   8 N  s         

 Vector   55  Occ=0.000000D+00  E= 1.755361D-01
              MO Center=  8.5D-02,  2.8D-01, -1.9D-02, r^2= 7.5D+00
   Bfn.  Coefficient  Atom+Function         Bfn.  Coefficient  Atom+Function  
  ----- ------------  ---------------      ----- ------------  ---------------
   247      0.499407  22 H  s               252     -0.480920  23 H  s         
    74     -0.414622   6 C  pz               59      0.376424   5 C  pz        
   209      0.364187  19 C  pz              224     -0.323758  20 C  pz        
   239      0.321719  21 N  pz               71     -0.301554   6 C  pz        
    56      0.278487   5 C  pz              192      0.260761  17 H  s         

 Vector   56  Occ=0.000000D+00  E= 1.988159D-01
              MO Center=  2.4D+00, -1.5D+00, -2.3D-02, r^2= 8.9D+00
   Bfn.  Coefficient  Atom+Function         Bfn.  Coefficient  Atom+Function  
  ----- ------------  ---------------      ----- ------------  ---------------
   163      2.117976  13 C  s               192     -1.134226  17 H  s         
   187     -1.122639  16 H  s               128      0.932936  10 C  s         
   197     -0.512662  18 H  s               182     -0.447882  15 H  s         
   177     -0.433326  14 H  s               167      0.367476  13 C  px        
    68     -0.343703   6 C  s                83     -0.324345   7 C  s         

 Vector   57  Occ=0.000000D+00  E= 2.057865D-01
              MO Center=  4.1D-01,  2.1D+00, -1.8D-02, r^2= 1.6D+01
   Bfn.  Coefficient  Atom+Function         Bfn.  Coefficient  Atom+Function  
  ----- ------------  ---------------      ----- ------------  ---------------
   157      1.678158  12 H  s               203      1.115198  19 C  s         
   218     -1.032977  20 C  s               128      1.025405  10 C  s         
   223     -0.869474  20 C  py              163     -0.632937  13 C  s         
   247     -0.623199  22 H  s               252     -0.603145  23 H  s         
   182     -0.586701  15 H  s               177     -0.574011  14 H  s         

 Vector   58  Occ=0.000000D+00  E= 2.122853D-01
              MO Center= -8.9D-01, -7.6D-01, -3.9D-02, r^2= 1.8D+01
   Bfn.  Coefficient  Atom+Function         Bfn.  Coefficient  Atom+Function  
  ----- ------------  ---------------      ----- ------------  ---------------
   128      1.834213  10 C  s               182     -1.018808  15 H  s         
   157     -1.001044  12 H  s               177     -0.966329  14 H  s         
   203     -0.726957  19 C  s               218      0.724172  20 C  s         
   163     -0.624875  13 C  s               252      0.478675  23 H  s         
   247      0.472957  22 H  s               223      0.445047  20 C  py        

 Vector   59  Occ=0.000000D+00  E= 2.533628D-01
              MO Center=  1.3D+00, -3.5D-01,  5.1D-03, r^2= 1.3D+01
   Bfn.  Coefficient  Atom+Function         Bfn.  Coefficient  Atom+Function  
  ----- ------------  ---------------      ----- ------------  ---------------
   187      1.284200  16 H  s               192     -1.241967  17 H  s         
   169     -0.999176  13 C  pz              182     -0.675662  15 H  s         
   177      0.662560  14 H  s               252     -0.659824  23 H  s         
   247      0.646064  22 H  s               134     -0.519945  10 C  pz        
   209      0.508334  19 C  pz               59      0.292209   5 C  pz        

 Vector   60  Occ=0.000000D+00  E= 2.601873D-01
              MO Center= -3.3D-01, -1.6D+00,  4.0D-02, r^2= 1.3D+01
   Bfn.  Coefficient  Atom+Function         Bfn.  Coefficient  Atom+Function  
  ----- ------------  ---------------      ----- ------------  ---------------
   197     -1.350861  18 H  s                 2      1.310452   1 H  s         
   168     -0.805233  13 C  py              133     -0.765720  10 C  py        
    38      0.694622   4 N  s               128     -0.597273  10 C  s         
    68     -0.543743   6 C  s               247     -0.523874  22 H  s         
   187      0.490865  16 H  s               177     -0.457327  14 H  s         

 Vector   61  Occ=0.000000D+00  E= 2.616822D-01
              MO Center= -3.3D-01,  2.7D+00,  1.1D-01, r^2= 1.1D+01
   Bfn.  Coefficient  Atom+Function         Bfn.  Coefficient  Atom+Function  
  ----- ------------  ---------------      ----- ------------  ---------------
   252      1.564621  23 H  s               247     -1.308953  22 H  s         
   209     -1.141570  19 C  pz              192     -0.633903  17 H  s         
   187      0.604606  16 H  s               169     -0.483365  13 C  pz        
   257     -0.439935  24 H  s               177      0.380724  14 H  s         
     2     -0.351514   1 H  s               104      0.347880   8 N  pz        

 Vector   62  Occ=0.000000D+00  E= 2.635998D-01
              MO Center= -2.5D-01,  5.6D-01, -1.1D-01, r^2= 1.5D+01
   Bfn.  Coefficient  Atom+Function         Bfn.  Coefficient  Atom+Function  
  ----- ------------  ---------------      ----- ------------  ---------------
   257      1.515566  24 H  s               197      1.213212  18 H  s         
   247     -0.719064  22 H  s               207      0.712822  19 C  px        
   168      0.580139  13 C  py              208      0.550688  19 C  py        
   163     -0.547433  13 C  s                 8      0.501457   2 N  s         
   192     -0.483540  17 H  s               167      0.468202  13 C  px        

 Vector   63  Occ=0.000000D+00  E= 2.723948D-01
              MO Center= -9.7D-01, -8.3D-01,  4.3D-02, r^2= 1.5D+01
   Bfn.  Coefficient  Atom+Function         Bfn.  Coefficient  Atom+Function  
  ----- ------------  ---------------      ----- ------------  ---------------
     2      1.242716   1 H  s               257     -1.105354  24 H  s         
   197      1.067111  18 H  s               177     -0.950064  14 H  s         
   192     -0.721890  17 H  s               208     -0.595467  19 C  py        
   168      0.571766  13 C  py              133     -0.565554  10 C  py        
   128     -0.494608  10 C  s               134      0.458446  10 C  pz        

 Vector   64  Occ=0.000000D+00  E= 2.736370D-01
              MO Center= -8.4D-01, -2.1D+00, -3.3D-02, r^2= 1.2D+01
   Bfn.  Coefficient  Atom+Function         Bfn.  Coefficient  Atom+Function  
  ----- ------------  ---------------      ----- ------------  ---------------
   182      1.529242  15 H  s               177     -1.250926  14 H  s         
   134      1.104980  10 C  pz              187      0.956821  16 H  s         
   192     -0.646302  17 H  s               169     -0.616418  13 C  pz        
     2     -0.606772   1 H  s               257      0.510696  24 H  s         
   197     -0.357079  18 H  s               128      0.295101  10 C  s         

 Vector   65  Occ=0.000000D+00  E= 2.910911D-01
              MO Center= -8.9D-01,  1.8D+00,  6.3D-03, r^2= 8.8D+00
   Bfn.  Coefficient  Atom+Function         Bfn.  Coefficient  Atom+Function  
  ----- ------------  ---------------      ----- ------------  ---------------
    98      1.623997   8 N  s               203     -1.287796  19 C  s         
   208      0.888204  19 C  py                2      0.661020   1 H  s         
    53      0.659465   5 C  s                 8     -0.656109   2 N  s         
   207     -0.644166  19 C  px              222      0.647015  20 C  px        
    38     -0.625962   4 N  s               257      0.600793  24 H  s         

 Vector   66  Occ=0.000000D+00  E= 3.127633D-01
              MO Center=  2.6D-01, -4.4D-01,  1.0D-02, r^2= 1.3D+01
   Bfn.  Coefficient  Atom+Function         Bfn.  Coefficient  Atom+Function  
  ----- ------------  ---------------      ----- ------------  ---------------
     8      1.339258   2 N  s               167      1.027569  13 C  px        
    98      0.969747   8 N  s                 2     -0.835399   1 H  s         
   132     -0.786530  10 C  px              163     -0.785417  13 C  s         
    38      0.711408   4 N  s               203     -0.691301  19 C  s         
   207     -0.681552  19 C  px               68     -0.557299   6 C  s         

 Vector   67  Occ=0.000000D+00  E= 3.395205D-01
              MO Center=  1.0D+00,  7.6D-01, -2.4D-02, r^2= 7.3D+00
   Bfn.  Coefficient  Atom+Function         Bfn.  Coefficient  Atom+Function  
  ----- ------------  ---------------      ----- ------------  ---------------
   233      1.739507  21 N  s               223      0.990035  20 C  py        
    28     -0.919245   3 C  py               83     -0.877934   7 C  s         
   222     -0.862596  20 C  px               23     -0.836815   3 C  s         
     8      0.829166   2 N  s               103     -0.706495   8 N  py        
    53     -0.657901   5 C  s                87     -0.637161   7 C  px        

 Vector   68  Occ=0.000000D+00  E= 3.417682D-01
              MO Center= -5.2D-02, -4.1D-01,  1.1D-02, r^2= 6.3D+00
   Bfn.  Coefficient  Atom+Function         Bfn.  Coefficient  Atom+Function  
  ----- ------------  ---------------      ----- ------------  ---------------
    29      0.660478   3 C  pz               59     -0.629814   5 C  pz        
   187      0.603904  16 H  s               192     -0.589554  17 H  s         
    89     -0.578159   7 C  pz              182     -0.554818  15 H  s         
   177      0.547507  14 H  s               169     -0.491238  13 C  pz        
   134     -0.461265  10 C  pz               74     -0.444608   6 C  pz        

 Vector   69  Occ=0.000000D+00  E= 3.459354D-01
              MO Center= -2.0D-01, -9.4D-01, -3.8D-03, r^2= 1.1D+01
   Bfn.  Coefficient  Atom+Function         Bfn.  Coefficient  Atom+Function  
  ----- ------------  ---------------      ----- ------------  ---------------
    38      1.272247   4 N  s                53     -1.001508   5 C  s         
   167     -0.870085  13 C  px              133     -0.849303  10 C  py        
   132     -0.821995  10 C  px              128     -0.772942  10 C  s         
     8     -0.746271   2 N  s                42     -0.655542   4 N  px        
   168      0.653928  13 C  py               12     -0.639472   2 N  px        

 Vector   70  Occ=0.000000D+00  E= 4.003609D-01
              MO Center= -6.6D-01,  9.4D-01,  3.7D-03, r^2= 8.8D+00
   Bfn.  Coefficient  Atom+Function         Bfn.  Coefficient  Atom+Function  
  ----- ------------  ---------------      ----- ------------  ---------------
    83      1.501055   7 C  s                28      1.150458   3 C  py        
   207     -0.991169  19 C  px              103      0.903165   8 N  py        
    38     -0.846758   4 N  s               257     -0.845798  24 H  s         
    68      0.821463   6 C  s               132      0.721144  10 C  px        
    27     -0.717553   3 C  px              222     -0.655492  20 C  px        

 Vector   71  Occ=0.000000D+00  E= 4.181170D-01
              MO Center=  1.1D-01,  1.4D-01, -7.6D-04, r^2= 7.7D+00
   Bfn.  Coefficient  Atom+Function         Bfn.  Coefficient  Atom+Function  
  ----- ------------  ---------------      ----- ------------  ---------------
   218      1.451496  20 C  s                98     -1.075245   8 N  s         
    88     -0.990432   7 C  py              222     -0.974899  20 C  px        
    87      0.915726   7 C  px              223     -0.898846  20 C  py        
    53     -0.882340   5 C  s               102     -0.879661   8 N  px        
    13     -0.713904   2 N  py               23      0.716251   3 C  s         

 Vector   72  Occ=0.000000D+00  E= 4.264708D-01
              MO Center=  9.3D-02, -4.7D-01, -2.1D-04, r^2= 8.0D+00
   Bfn.  Coefficient  Atom+Function         Bfn.  Coefficient  Atom+Function  
  ----- ------------  ---------------      ----- ------------  ---------------
    68      2.418002   6 C  s                53      1.286039   5 C  s         
   233      1.235100  21 N  s                27      1.147063   3 C  px        
    88     -1.094334   7 C  py               42     -0.958508   4 N  px        
     8     -0.872795   2 N  s                57      0.860368   5 C  px        
   222     -0.822728  20 C  px               12      0.786724   2 N  px        

 Vector   73  Occ=0.000000D+00  E= 4.406979D-01
              MO Center=  1.5D-01, -4.6D-02,  1.4D-03, r^2= 8.0D+00
   Bfn.  Coefficient  Atom+Function         Bfn.  Coefficient  Atom+Function  
  ----- ------------  ---------------      ----- ------------  ---------------
    53      1.718656   5 C  s               218      1.278084  20 C  s         
    73      1.224713   6 C  py              223     -1.194059  20 C  py        
    38     -1.059143   4 N  s                28      0.904778   3 C  py        
    43     -0.847070   4 N  py              238     -0.838553  21 N  py        
   113      0.797947   9 O  s                58     -0.771743   5 C  py        

 Vector   74  Occ=0.000000D+00  E= 4.454464D-01
              MO Center=  8.7D-02, -3.1D-01,  9.1D-03, r^2= 7.9D+00
   Bfn.  Coefficient  Atom+Function         Bfn.  Coefficient  Atom+Function  
  ----- ------------  ---------------      ----- ------------  ---------------
   218      1.497846  20 C  s                73     -1.332645   6 C  py        
    83      0.967374   7 C  s                53      0.942333   5 C  s         
   223     -0.935061  20 C  py              102     -0.905494   8 N  px        
   222     -0.904523  20 C  px               98     -0.840166   8 N  s         
   113     -0.726727   9 O  s                68     -0.712923   6 C  s         

 Vector   75  Occ=0.000000D+00  E= 4.674642D-01
              MO Center=  6.2D-01,  5.7D-01,  3.4D-03, r^2= 7.2D+00
   Bfn.  Coefficient  Atom+Function         Bfn.  Coefficient  Atom+Function  
  ----- ------------  ---------------      ----- ------------  ---------------
    83      1.965194   7 C  s                87     -1.796130   7 C  px        
    23     -1.485189   3 C  s                27     -1.487252   3 C  px        
   102      1.151081   8 N  px               88     -1.089766   7 C  py        
   233      1.034379  21 N  s               218     -1.008977  20 C  s         
   222      0.989464  20 C  px                8     -0.963917   2 N  s         

 Vector   76  Occ=0.000000D+00  E= 4.952016D-01
              MO Center=  1.2D-01,  6.5D-02,  6.6D-03, r^2= 6.6D+00
   Bfn.  Coefficient  Atom+Function         Bfn.  Coefficient  Atom+Function  
  ----- ------------  ---------------      ----- ------------  ---------------
    53      3.985096   5 C  s                28      2.722850   3 C  py        
    57      1.718443   5 C  px               83      1.479571   7 C  s         
    98     -1.403902   8 N  s                 8     -1.375546   2 N  s         
    27      1.337386   3 C  px               88     -1.340511   7 C  py        
    38     -1.284406   4 N  s                43     -1.236463   4 N  py        

 Vector   77  Occ=0.000000D+00  E= 5.137208D-01
              MO Center= -1.4D-01,  2.8D-01,  2.2D-03, r^2= 7.5D+00
   Bfn.  Coefficient  Atom+Function         Bfn.  Coefficient  Atom+Function  
  ----- ------------  ---------------      ----- ------------  ---------------
    28      3.181338   3 C  py               57      2.410381   5 C  px        
    98     -1.559779   8 N  s               103      1.453097   8 N  py        
   143      1.392474  11 O  s                87     -1.130723   7 C  px        
    68      1.047894   6 C  s                88     -1.037173   7 C  py        
    27      0.972187   3 C  px               53      0.943454   5 C  s         


------------------------------------------------------------
EAF file 0: "./prop_caffeine_run.aoints.0" size=3435659264 bytes
------------------------------------------------------------
               write      read    awrite     aread      wait
               -----      ----    ------     -----      ----
     calls:     6279        17         0    106726    106726
   data(b): 3.29e+09  8.91e+06  0.00e+00  5.60e+10
   time(s): 0.00e+00  0.00e+00  0.00e+00  0.00e+00  0.00e+00
rate(mb/s): 0.00e+00  0.00e+00
------------------------------------------------------------


 center of mass
 --------------
 x =   0.00772961 y =  -0.01504140 z =   0.00038865

 moments of inertia (a.u.)
 ------------------
        2616.549327768485           0.000000000001           0.000000000000
           0.000000000001        1743.099131357122          -0.000000000000
           0.000000000000          -0.000000000000        4323.590780497994

  Mulliken analysis of the total density
  --------------------------------------

    Atom       Charge   Shell Charges
 -----------   ------   -------------------------------------------------------
    1 H    1     0.91   0.72  0.15  0.03
    2 N    7     7.53   2.00  0.71  0.74  2.44  1.56  0.07
    3 C    6     6.00   2.00  0.65  0.40  2.06  0.75  0.14
    4 N    7     7.53   2.00  0.72  0.74  2.43  1.57  0.07
    5 C    6     5.51   2.00  0.69  0.31  1.86  0.39  0.25
    6 C    6     5.38   2.00  0.69  0.23  1.84  0.34  0.27
    7 C    6     5.62   2.00  0.68  0.35  1.94  0.47  0.19
    8 N    7     7.41   2.00  0.73  0.71  2.41  1.48  0.08
    9 O    8     8.44   2.00  0.84  0.94  2.78  1.86  0.02
   10 C    6     5.92   2.00  0.65  0.39  1.98  0.82  0.08
   11 O    8     8.44   2.00  0.84  0.94  2.78  1.86  0.02
   12 H    1     0.92   0.74  0.15  0.03
   13 C    6     5.93   2.00  0.65  0.39  1.98  0.82  0.08
   14 H    1     0.93   0.74  0.17  0.03
   15 H    1     0.94   0.74  0.17  0.03
   16 H    1     0.94   0.74  0.17  0.03
   17 H    1     0.94   0.74  0.17  0.03
   18 H    1     0.90   0.72  0.15  0.03
   19 C    6     5.94   2.00  0.65  0.40  1.99  0.82  0.08
   20 C    6     5.74   2.00  0.68  0.38  1.90  0.62  0.15
   21 N    7     7.38   2.00  0.77  0.80  2.26  1.50  0.05
   22 H    1     0.94   0.74  0.17  0.03
   23 H    1     0.94   0.74  0.17  0.03
   24 H    1     0.88   0.71  0.13  0.03

       Multipole analysis of the density wrt the origin
       ------------------------------------------------

     L   x y z        total         open         nuclear
     -   - - -        -----         ----         -------
     0   0 0 0     -0.000000      0.000000    102.000000

     1   1 0 0      0.373016      0.000000     -0.000000
     1   0 1 0      1.561858      0.000000      0.000000
     1   0 0 1      0.001624      0.000000      0.000000

     2   2 0 0    -64.783178      0.000000    962.169586
     2   1 1 0      1.176415      0.000000     -8.287418
     2   1 0 1     -0.010103      0.000000     -0.012060
     2   0 2 0    -55.989010      0.000000   1442.288566
     2   0 1 1     -0.047588      0.000000     -0.017811
     2   0 0 2    -60.604923      0.000000     17.886760


 Parallel integral file used    6279 records with       0 large values


 Task  times  cpu:       74.8s     wall:       88.4s


                                NWChem Input Module
                                -------------------




                           NWChem Geometry Optimization
                           ----------------------------




                                     caffeine


 maximum gradient threshold         (gmax) =   0.000450
 rms gradient threshold             (grms) =   0.000300
 maximum cartesian step threshold   (xmax) =   0.001800
 rms cartesian step threshold       (xrms) =   0.001200
 fixed trust radius                (trust) =   0.300000
 maximum step size to saddle      (sadstp) =   0.100000
 energy precision                  (eprec) =   1.0D-07
 maximum number of steps          (nptopt) =   20
 initial hessian option           (inhess) =    0
 line search option               (linopt) =    1
 hessian update option            (modupd) =    1
 saddle point option              (modsad) =    0
 initial eigen-mode to follow     (moddir) =    0
 initial variable to follow       (vardir) =    0
 follow first negative mode     (firstneg) =    T
 apply conjugacy                    (opcg) =    F
 source of zmatrix                         =   autoz   


          -------------------
          Energy Minimization
          -------------------


 Names of Z-matrix variables 
    1              2              3              4              5         
    6              7              8              9             10         
   11             12             13             14             15         
   16             17             18             19             20         
   21             22             23             24             25         
   26             27             28             29             30         
   31             32             33             34             35         
   36             37             38             39             40         
   41             42             43             44             45         
   46             47             48             49             50         
   51             52             53             54             55         
   56             57             58             59             60         
   61             62             63             64             65         
   66             67             68             69             70         
   71             72             73             74             75         
   76             77             78             79             80         
   81             82             83             84             85         
   86             87             88             89             90         
   91             92             93             94             95         
   96             97             98             99            100         
  101            102            103            104            105         
  106            107            108            109            110         
  111            112            113            114            115         
  116            117            118            119            120         
  121            122         

 Variables with the same non-blank name are constrained to be equal


 Using old Hessian from previous optimization

          --------
          Step   0
          --------


                         Geometry "geometry" -> "geometry"
                         ---------------------------------

 Output coordinates in angstroms (scale by  1.889725989 to convert to a.u.)

  No.       Tag          Charge          X              Y              Z
 ---- ---------------- ---------- -------------- -------------- --------------
    1 H                    1.0000    -3.15524297    -1.74914472     0.04338627
    2 N                    7.0000     1.34532617    -0.98386990     0.00580137
    3 C                    6.0000    -0.20849542     0.91203024     0.00146892
    4 N                    7.0000    -1.09542395    -1.31895685     0.00267360
    5 C                    6.0000    -1.38480395     0.06136213     0.00174279
    6 C                    6.0000     0.22260588    -1.84656525     0.00064096
    7 C                    6.0000     1.12408900     0.38490633     0.00239296
    8 N                    7.0000    -0.07830274     2.30478860     0.00003353
    9 O                    8.0000     0.39271715    -3.08555522    -0.00298840
   10 C                    6.0000    -2.17031655    -2.28422881    -0.00159554
   11 O                    8.0000    -2.55960197     0.47423208     0.00149776
   12 H                    1.0000     1.69943110     3.58141258    -0.00150447
   13 C                    6.0000     2.68438522    -1.51121501    -0.00307071
   14 H                    1.0000    -2.06508748    -2.96549848     0.88464893
   15 H                    1.0000    -2.11519364    -2.90284434    -0.93683765
   16 H                    1.0000     3.24199241    -1.12896841     0.89350406
   17 H                    1.0000     3.21432198    -1.17414234    -0.93394727
   18 H                    1.0000     2.64952923    -2.63301315     0.02477324
   19 C                    6.0000    -1.13664535     3.26238766    -0.00367536
   20 C                    6.0000     1.29157657     2.56283430    -0.00041079
   21 N                    7.0000     2.05451708     1.43613679     0.00108562
   22 H                    1.0000    -1.07028850     3.89803398    -0.92762068
   23 H                    1.0000    -1.05486397     3.92146412     0.90234261
   24 H                    1.0000    -2.12670788     2.72752597     0.01106191

      Atomic Mass 
      ----------- 

      H                  1.007825
      N                 14.003070
      C                 12.000000
      O                 15.994910


 Effective nuclear repulsion energy (a.u.)     917.0684472598

            Nuclear Dipole moment (a.u.) 
            ----------------------------
        X                 Y               Z
 ---------------- ---------------- ----------------
    -0.0000000000     0.0000000000     0.0000000000

                                 NWChem SCF Module
                                 -----------------


                                     caffeine



  ao basis        = "ao basis"
  functions       =   260
  atoms           =    24
  closed shells   =    51
  open shells     =     0
  charge          =   0.00
  wavefunction    = RHF 
  input vectors   = ./prop_caffeine_run.movecs
  output vectors  = ./prop_caffeine_run.movecs
  use symmetry    = F
  symmetry adapt  = F


 Summary of "ao basis" -> "ao basis" (cartesian)
 ------------------------------------------------------------------------------
       Tag                 Description            Shells   Functions and Types
 ---------------- ------------------------------  ------  ---------------------
 H                          cc-pvdz                  3        5   2s1p
 N                          cc-pvdz                  6       15   3s2p1d
 C                          cc-pvdz                  6       15   3s2p1d
 O                          cc-pvdz                  6       15   3s2p1d



  The SCF is already converged 

         Total SCF energy =   -676.357837441209

                              NWChem Gradients Module
                              -----------------------


                                     caffeine


  wavefunction    =   RHF     



                         RHF ENERGY GRADIENTS

    atom               coordinates                        gradient
                 x          y          z           x          y          z
   1 H      -5.962545  -3.305404   0.081988   -0.025466   0.009803   0.001204
   2 N       2.542298  -1.859245   0.010963    0.043189  -0.007969   0.000093
   3 C      -0.393999   1.723487   0.002776   -0.052479   0.020184   0.000003
   4 N      -2.070051  -2.492467   0.005052   -0.044206  -0.026429  -0.000365
   5 C      -2.616900   0.115958   0.003293    0.054478  -0.018268  -0.000047
   6 C       0.420664  -3.489502   0.001211   -0.016150   0.066597  -0.000103
   7 C       2.124220   0.727367   0.004522    0.040164  -0.055631  -0.000024
   8 N      -0.147971   4.355419   0.000063   -0.067713   0.023093  -0.000163
[...]
   23 H                    1.0000    -0.13494733    -0.17664050     0.18724170
   24 H                    1.0000    -0.00261066    -0.00581693    -0.19520421


  Geometry after  100.0% step for mode  1; Step length =  0.462 angstroms 
   Maximum component (any atom: x,y, or z) displacement:  0.369
    1 H                    1.0000    -3.08986106    -1.72132877     0.02920024
    2 N                    7.0000     1.30915899    -0.96888941     0.00021157
    3 C                    6.0000    -0.22199933     0.89599316     0.00642386
    4 N                    7.0000    -1.05786788    -1.30487456     0.00828142
    5 C                    6.0000    -1.39844237     0.07126571    -0.00893470
    6 C                    6.0000     0.23774018    -1.86278933     0.00990126
    7 C                    6.0000     1.06361501     0.38444276    -0.00044477
    8 N                    7.0000    -0.06092228     2.27536714    -0.00712422
    9 O                    8.0000     0.39425636    -3.07355402     0.01794906
   10 C                    6.0000    -2.15094683    -2.28215476     0.00505554
   11 O                    8.0000    -2.56457807     0.45711040    -0.03597902
   12 H                    1.0000     1.69967964     3.49277999    -0.02259759
   13 C                    6.0000     2.67987590    -1.47328432    -0.01845966
   14 H                    1.0000    -2.06764271    -2.94135689     0.87985326
   15 H                    1.0000    -2.09855359    -2.90683419    -0.89784022
   16 H                    1.0000     3.23247229    -1.09914865     0.85572847
   17 H                    1.0000     3.19688087    -1.13268168    -0.92795911
   18 H                    1.0000     2.62761968    -2.56587905     0.00225971
   19 C                    6.0000    -1.12432766     3.27709140     0.04195880
   20 C                    6.0000     1.27997388     2.48911072    -0.01498852
   21 N                    7.0000     2.00257408     1.36885332    -0.01433270
   22 H                    1.0000    -0.93057868     4.07564045    -0.73432285
   23 H                    1.0000    -1.17379655     3.74974707     1.07003138
   24 H                    1.0000    -2.08496776     2.73947119    -0.17191815


  Geometry after -100.0% step for mode  1; Step length =  0.462 angstroms 
   Maximum component (any atom: x,y, or z) displacement:  0.369
    1 H                    1.0000    -3.08987546    -1.72110646     0.00422453
    2 N                    7.0000     1.30920417    -0.96884920    -0.00033448
    3 C                    6.0000    -0.22197421     0.89583293    -0.00500838
    4 N                    7.0000    -1.05789221    -1.30489284    -0.00417829
    5 C                    6.0000    -1.39850470     0.07135193     0.01188093
    6 C                    6.0000     0.23769055    -1.86263657    -0.01578962
    7 C                    6.0000     1.06372686     0.38447894    -0.00070562
    8 N                    7.0000    -0.06115752     2.27513851     0.01128006
    9 O                    8.0000     0.39430913    -3.07327261    -0.03377460
   10 C                    6.0000    -2.15089484    -2.28221914    -0.00812192
   11 O                    8.0000    -2.56436264     0.45759023     0.04065045
   12 H                    1.0000     1.69912926     3.49291648     0.02725798
   13 C                    6.0000     2.67989372    -1.47353396     0.00979267
   14 H                    1.0000    -2.07797120    -2.93411103     0.87347157
   15 H                    1.0000    -2.08802303    -2.91449778    -0.90465310
   16 H                    1.0000     3.21817309    -1.08081660     0.88468403
   17 H                    1.0000     3.21176071    -1.15236857    -0.89827407
   18 H                    1.0000     2.62718774    -2.56554521     0.05078142
   19 C                    6.0000    -1.12428486     3.27642712    -0.04333327
   20 C                    6.0000     1.27972974     2.48914156     0.01759278
   21 N                    7.0000     2.00254520     1.36903915     0.01392137
   22 H                    1.0000    -1.20508844     3.70992690    -1.08654845
   23 H                    1.0000    -0.90390188     4.10302807     0.69554798
   24 H                    1.0000    -2.07974644     2.75110505     0.21849027


  Geometry after   50.0% step for mode  1; Step length =  0.231 angstroms 
   Maximum component (any atom: x,y, or z) displacement:  0.184
    1 H                    1.0000    -3.08986466    -1.72127320     0.02295631
    2 N                    7.0000     1.30917029    -0.96887935     0.00007505
    3 C                    6.0000    -0.22199305     0.89595310     0.00356580
    4 N                    7.0000    -1.05787396    -1.30487913     0.00516649
    5 C                    6.0000    -1.39845795     0.07128727    -0.00373079
    6 C                    6.0000     0.23772777    -1.86275114     0.00347854
    7 C                    6.0000     1.06364297     0.38445180    -0.00050998
    8 N                    7.0000    -0.06098109     2.27530998    -0.00252315
    9 O                    8.0000     0.39426955    -3.07348367     0.00501814
   10 C                    6.0000    -2.15093383    -2.28217086     0.00176118
   11 O                    8.0000    -2.56452421     0.45723036    -0.01682165
   12 H                    1.0000     1.69954204     3.49281411    -0.01013369
   13 C                    6.0000     2.67988035    -1.47334673    -0.01139658
   14 H                    1.0000    -2.07022483    -2.93954542     0.87825784
   15 H                    1.0000    -2.09592095    -2.90875009    -0.89954344
   16 H                    1.0000     3.22889749    -1.09456564     0.86296736
   17 H                    1.0000     3.20060083    -1.13760340    -0.92053785
   18 H                    1.0000     2.62751169    -2.56579559     0.01439014
   19 C                    6.0000    -1.12431696     3.27692533     0.02063578
   20 C                    6.0000     1.27991285     2.48911843    -0.00684319
   21 N                    7.0000     2.00256686     1.36889978    -0.00726918
   22 H                    1.0000    -0.99920612     3.98421206    -0.82237925
   23 H                    1.0000    -1.10632288     3.83806732     0.97641053
   24 H                    1.0000    -2.08366243     2.74237965    -0.07431605


  Geometry after  -50.0% step for mode  1; Step length =  0.231 angstroms 
   Maximum component (any atom: x,y, or z) displacement:  0.184
    1 H                    1.0000    -3.08987186    -1.72116204     0.01046845
    2 N                    7.0000     1.30919287    -0.96885925    -0.00019797
    3 C                    6.0000    -0.22198049     0.89587299    -0.00215032
    4 N                    7.0000    -1.05788613    -1.30488827    -0.00106336
    5 C                    6.0000    -1.39848912     0.07133038     0.00667702
    6 C                    6.0000     0.23770296    -1.86267476    -0.00936690
    7 C                    6.0000     1.06369890     0.38446989    -0.00064041
    8 N                    7.0000    -0.06109871     2.27519567     0.00667899
    9 O                    8.0000     0.39429594    -3.07334297    -0.02084369
   10 C                    6.0000    -2.15090784    -2.28220304    -0.00482755
   11 O                    8.0000    -2.56441650     0.45747027     0.02149308
   12 H                    1.0000     1.69926685     3.49288236     0.01479409
   13 C                    6.0000     2.67988926    -1.47347155     0.00272959
   14 H                    1.0000    -2.07538908    -2.93592249     0.87506699
   15 H                    1.0000    -2.09065567    -2.91258189    -0.90294988
   16 H                    1.0000     3.22174789    -1.08539961     0.87744514
   17 H                    1.0000     3.20804075    -1.14744685    -0.90569533
   18 H                    1.0000     2.62729572    -2.56562867     0.03865100
   19 C                    6.0000    -1.12429556     3.27659319    -0.02201025
   20 C                    6.0000     1.27979078     2.48913385     0.00944745
   21 N                    7.0000     2.00255242     1.36899270     0.00685785
   22 H                    1.0000    -1.13646100     3.80135529    -0.99849205
   23 H                    1.0000    -0.97137555     4.01470782     0.78916883
   24 H                    1.0000    -2.08105177     2.74819659     0.12088816


  Geometry after   54.2% step for mode  1; Step length =  0.250 angstroms 
   Maximum component (any atom: x,y, or z) displacement:  0.200
    1 H                    1.0000    -3.08986436    -1.72127788     0.02348302
    2 N                    7.0000     1.30916933    -0.96888020     0.00008657
    3 C                    6.0000    -0.22199358     0.89595648     0.00380690
    4 N                    7.0000    -1.05787345    -1.30487874     0.00542926
    5 C                    6.0000    -1.39845664     0.07128545    -0.00416978
    6 C                    6.0000     0.23772882    -1.86275437     0.00402034
    7 C                    6.0000     1.06364061     0.38445104    -0.00050448
    8 N                    7.0000    -0.06097613     2.27531481    -0.00291128
    9 O                    8.0000     0.39426844    -3.07348960     0.00610895
   10 C                    6.0000    -2.15093493    -2.28216950     0.00203908
   11 O                    8.0000    -2.56452875     0.45722024    -0.01843770
   12 H                    1.0000     1.69955365     3.49281123    -0.01118510
   13 C                    6.0000     2.67987998    -1.47334147    -0.01199239
   14 H                    1.0000    -2.07000701    -2.93969823     0.87839242
   15 H                    1.0000    -2.09614303    -2.90858847    -0.89939977
   16 H                    1.0000     3.22919905    -1.09495224     0.86235672
   17 H                    1.0000     3.20028703    -1.13718823    -0.92116388
   18 H                    1.0000     2.62752080    -2.56580263     0.01336686
   19 C                    6.0000    -1.12431786     3.27693934     0.02243451
   20 C                    6.0000     1.27991800     2.48911778    -0.00753030
   21 N                    7.0000     2.00256747     1.36889586    -0.00786503
   22 H                    1.0000    -0.99341697     3.99192461    -0.81495114
   23 H                    1.0000    -1.11201470     3.83061696     0.98430803
   24 H                    1.0000    -2.08377254     2.74213431    -0.08254939


  Geometry after  -54.2% step for mode  1; Step length =  0.250 angstroms 
   Maximum component (any atom: x,y, or z) displacement:  0.200
    1 H                    1.0000    -3.08987217    -1.72115735     0.00994174
    2 N                    7.0000     1.30919383    -0.96885840    -0.00020949
    3 C                    6.0000    -0.22197996     0.89586961    -0.00239142
    4 N                    7.0000    -1.05788664    -1.30488866    -0.00132613
    5 C                    6.0000    -1.39849043     0.07133219     0.00711600
    6 C                    6.0000     0.23770191    -1.86267154    -0.00990870
    7 C                    6.0000     1.06370126     0.38447066    -0.00064591
    8 N                    7.0000    -0.06110367     2.27519085     0.00706712
    9 O                    8.0000     0.39429705    -3.07333703    -0.02193449
   10 C                    6.0000    -2.15090674    -2.28220440    -0.00510545
   11 O                    8.0000    -2.56441195     0.45748039     0.02310912
   12 H                    1.0000     1.69925525     3.49288524     0.01584550
   13 C                    6.0000     2.67988964    -1.47347682     0.00332540
   14 H                    1.0000    -2.07560690    -2.93576969     0.87493241
   15 H                    1.0000    -2.09043359    -2.91274350    -0.90309356
   16 H                    1.0000     3.22144634    -1.08501301     0.87805579
   17 H                    1.0000     3.20835455    -1.14786202    -0.90506930
   18 H                    1.0000     2.62728662    -2.56562163     0.03967427
   19 C                    6.0000    -1.12429466     3.27657918    -0.02380898
   20 C                    6.0000     1.27978563     2.48913450     0.01013456
   21 N                    7.0000     2.00255181     1.36899661     0.00745370
   22 H                    1.0000    -1.14225015     3.79364273    -1.00592016
   23 H                    1.0000    -0.96568373     4.02215818     0.78127133
   24 H                    1.0000    -2.08094166     2.74844193     0.12912151


  Geometry after   27.1% step for mode  1; Step length =  0.125 angstroms 
   Maximum component (any atom: x,y, or z) displacement:  0.100
    1 H                    1.0000    -3.08986631    -1.72124775     0.02009770
    2 N                    7.0000     1.30917546    -0.96887475     0.00001256
    3 C                    6.0000    -0.22199018     0.89593476     0.00225732
    4 N                    7.0000    -1.05787675    -1.30488122     0.00374041
    5 C                    6.0000    -1.39846509     0.07129714    -0.00134833
    6 C                    6.0000     0.23772209    -1.86273366     0.00053808
    7 C                    6.0000     1.06365578     0.38445594    -0.00053984
    8 N                    7.0000    -0.06100802     2.27528382    -0.00041668
    9 O                    8.0000     0.39427559    -3.07345146    -0.00090191
   10 C                    6.0000    -2.15092788    -2.28217823     0.00025294
   11 O                    8.0000    -2.56449955     0.45728528    -0.00805099
   12 H                    1.0000     1.69947905     3.49282974    -0.00442745
   13 C                    6.0000     2.67988239    -1.47337531    -0.00816294
   14 H                    1.0000    -2.07140698    -2.93871609     0.87752742
   15 H                    1.0000    -2.09471567    -2.90962723    -0.90032321
   16 H                    1.0000     3.22726087    -1.09246743     0.86628148
   17 H                    1.0000     3.20230391    -1.13985668    -0.91714023
   18 H                    1.0000     2.62746226    -2.56575738     0.01994371
   19 C                    6.0000    -1.12431206     3.27684930     0.01087364
   20 C                    6.0000     1.27988491     2.48912196    -0.00311409
   21 N                    7.0000     2.00256355     1.36892105    -0.00403535
   22 H                    1.0000    -1.03062526     3.94235414    -0.86269340
   23 H                    1.0000    -1.07543196     3.87850226     0.93354886
   24 H                    1.0000    -2.08306482     2.74371121    -0.02963167


  Geometry after  -27.1% step for mode  1; Step length =  0.125 angstroms 
   Maximum component (any atom: x,y, or z) displacement:  0.100
    1 H                    1.0000    -3.08987021    -1.72118748     0.01332706
    2 N                    7.0000     1.30918770    -0.96886385    -0.00013547
    3 C                    6.0000    -0.22198337     0.89589133    -0.00084184
    4 N                    7.0000    -1.05788334    -1.30488618     0.00036272
    5 C                    6.0000    -1.39848198     0.07132051     0.00429456
    6 C                    6.0000     0.23770864    -1.86269225    -0.00642644
    7 C                    6.0000     1.06368610     0.38446575    -0.00061055
    8 N                    7.0000    -0.06107179     2.27522184     0.00457252
    9 O                    8.0000     0.39428990    -3.07337517    -0.01492363
   10 C                    6.0000    -2.15091379    -2.28219568    -0.00331932
   11 O                    8.0000    -2.56444115     0.45741535     0.01272242
   12 H                    1.0000     1.69932985     3.49286674     0.00908785
   13 C                    6.0000     2.67988722    -1.47344298    -0.00050405
   14 H                    1.0000    -2.07420693    -2.93675182     0.87579741
   15 H                    1.0000    -2.09186095    -2.91170475    -0.90217011
   16 H                    1.0000     3.22338451    -1.08749782     0.87413102
   17 H                    1.0000     3.20633767    -1.14519357    -0.90909294
   18 H                    1.0000     2.62734516    -2.56566688     0.03309742
   19 C                    6.0000    -1.12430046     3.27666922    -0.01224811
   20 C                    6.0000     1.27981872     2.48913032     0.00571835
   21 N                    7.0000     2.00255572     1.36897143     0.00362402
   22 H                    1.0000    -1.10504186     3.84321320    -0.95817790
   23 H                    1.0000    -1.00226647     3.97427287     0.83203051
   24 H                    1.0000    -2.08164938     2.74686503     0.07620378


 vib:animation  F

 Task  times  cpu:     5186.0s     wall:     5239.5s
 Summary of allocated global arrays
-----------------------------------
  No active global arrays



                         GA Statistics for process    0
                         ------------------------------

       create   destroy   get      put      acc     scatter   gather  read&inc
calls: 3.76e+04 3.76e+04 4.84e+07 3.78e+06 3.86e+07 4107        0     5.32e+04 
number of processes/call 1.00e+00 1.00e+00 1.00e+00 0.00e+00 0.00e+00
bytes total:             2.59e+11 7.68e+09 2.73e+11 8.53e+04 0.00e+00 4.26e+05
bytes remote:            0.00e+00 0.00e+00 0.00e+00 0.00e+00 0.00e+00 0.00e+00
Max memory consumed for GA by this process: 347986816 bytes
MA_summarize_allocated_blocks: starting scan ...
MA_summarize_allocated_blocks: scan completed: 0 heap blocks, 0 stack blocks
MA usage statistics:

	allocation statistics:
					      heap	     stack
					      ----	     -----
	current number of blocks	         0	         0
	maximum number of blocks	        24	        52
	current total bytes		         0	         0
	maximum total bytes		  33249360	  91303704
	maximum total K-bytes		     33250	     91304
	maximum total M-bytes		        34	        92


                                NWChem Input Module
                                -------------------





                                     CITATION
                                     --------
                Please cite the following reference when publishing
                           results obtained with NWChem:

                 M. Valiev, E.J. Bylaska, N. Govind, K. Kowalski,
              T.P. Straatsma, H.J.J. van Dam, D. Wang, J. Nieplocha,
                        E. Apra, T.L. Windus, W.A. de Jong
                 "NWChem: a comprehensive and scalable open-source
                  solution for large scale molecular simulations"
                      Comput. Phys. Commun. 181, 1477 (2010)
                           doi:10.1016/j.cpc.2010.04.018

                                      AUTHORS
                                      -------
          E. Apra, E. J. Bylaska, W. A. de Jong, N. Govind, K. Kowalski,
       T. P. Straatsma, M. Valiev, H. J. J. van Dam, D. Wang, T. L. Windus,
        J. Hammond, J. Autschbach, K. Bhaskaran-Nair, J. Brabec, K. Lopata,
        S. Krishnamoorthy, W. Ma, M. Klemm, O. Villa, Y. Chen, V. Anisimov,
    F. Aquino, S. Hirata, M. T. Hackler, T. Risthaus, M. Malagoli, A. Marenich,
   A. Otero-de-la-Roza, J. Mullin, P. Nichols, R. Peverati, J. Pittner, Y. Zhao,
          P.-D. Fan, A. Fonari, M. Williamson, R. J. Harrison, M. Dupuis,
     D. Silverstein, D. M. A. Smith, J. Nieplocha, V. Tipparaju, M. Krishnan,
       B. E. Van Kuiken, A. Vazquez-Mayagoitia, L. Jensen, M. Swart, Q. Wu,
   T. Van Voorhis, A. A. Auer, M. Nooijen, L. D. Crosby, E. Brown, G. Cisneros,
     G. I. Fann, H. Fruchtl, J. Garza, K. Hirao, R. A. Kendall, J. A. Nichols,
       K. Tsemekhman, K. Wolinski, J. Anchell, D. E. Bernholdt, P. Borowski,
       T. Clark, D. Clerc, H. Dachsel, M. J. O. Deegan, K. Dyall, D. Elwood,
      E. Glendening, M. Gutowski, A. C. Hess, J. Jaffe, B. G. Johnson, J. Ju,
        R. Kobayashi, R. Kutteh, Z. Lin, R. Littlefield, X. Long, B. Meng,
      T. Nakajima, S. Niu, L. Pollack, M. Rosing, K. Glaesemann, G. Sandrone,
      M. Stave, H. Taylor, G. Thomas, J. H. van Lenthe, A. T. Wong, Z. Zhang.

 Total times  cpu:     7735.6s     wall:     7987.7s
