 argument  1 = prop_h2o.nw



============================== echo of input deck ==============================
echo
start prop_h2o_run
title h2o

geometry units bohr
o  0.0  0.0 0.11786656
h  0.0 1.84118838 -0.93531364
h  0.0 -1.84118838 -0.93531364
end

basis
 * library cc-pvdz
# * library aug-cc-pvtz
end
charge 0

task scf optimize
task scf freq

property
 mulliken
 dipole
 quadrupole
 octupole
 esp
 efield
 efieldgrad
 electrondensity
 shielding
end

task scf property

geometry units bohr
o  1.0  0.0 0.11786656
h  1.0 1.84118838 -0.93531364
h  1.0 -1.84118838 -0.93531364
end

task dft optimize
task dft freq
task dft property
================================================================================


                                         
                                         


              Northwest Computational Chemistry Package (NWChem) 6.5
              ------------------------------------------------------


                    Environmental Molecular Sciences Laboratory
                       Pacific Northwest National Laboratory
                                Richland, WA 99352

                              Copyright (c) 1994-2013
                       Pacific Northwest National Laboratory
                            Battelle Memorial Institute

             NWChem is an open-source computational chemistry package
                        distributed under the terms of the
                      Educational Community License (ECL) 2.0
             A copy of the license is included with this distribution
                              in the LICENSE.TXT file

                                  ACKNOWLEDGMENT
                                  --------------

            This software and its documentation were developed at the
            EMSL at Pacific Northwest National Laboratory, a multiprogram
            national laboratory, operated for the U.S. Department of Energy
            by Battelle under Contract Number DE-AC05-76RL01830. Support
            for this work was provided by the Department of Energy Office
            of Biological and Environmental Research, Office of Basic
            Energy Sciences, and the Office of Advanced Scientific Computing.


           Job information
           ---------------

    hostname        = fryslan
    program         = ../bin/LINUX64/nwchem
    date            = Thu Aug 10 09:50:13 2017

    compiled        = Thu_Aug_10_09:32:47_2017
    source          = /home/users/wadejong/Json/NWChem-Json
    nwchem branch   = Development
    nwchem revision = 27327
    ga revision     = 10576
    input           = prop_h2o.nw
    prefix          = prop_h2o_run.
    data base       = ./prop_h2o_run.db
    status          = startup
    nproc           =        1
    time left       =     -1s



           Memory information
           ------------------

    heap     =   13107198 doubles =    100.0 Mbytes
    stack    =   13107195 doubles =    100.0 Mbytes
    global   =   26214400 doubles =    200.0 Mbytes (distinct from heap & stack)
    total    =   52428793 doubles =    400.0 Mbytes
    verify   = yes
    hardfail = no 


           Directory information
           ---------------------

  0 permanent = .
  0 scratch   = .




                                NWChem Input Module
                                -------------------


                                        h2o
                                        ---
 C2V symmetry detected

          ------
          auto-z
          ------


                             Geometry "geometry" -> ""
                             -------------------------

 Output coordinates in a.u. (scale by  1.000000000 to convert to a.u.)

  No.       Tag          Charge          X              Y              Z
 ---- ---------------- ---------- -------------- -------------- --------------
    1 o                    8.0000     0.00000000     0.00000000     0.21063604
    2 h                    1.0000    -1.84118838     0.00000000    -0.84254416
    3 h                    1.0000     1.84118838     0.00000000    -0.84254416

      Atomic Mass 
      ----------- 

      o                 15.994910
      h                  1.007825


 Effective nuclear repulsion energy (a.u.)       7.8147374646

            Nuclear Dipole moment (a.u.) 
            ----------------------------
        X                 Y               Z
 ---------------- ---------------- ----------------
     0.0000000000     0.0000000000     0.0000000000

      Symmetry information
      --------------------

 Group name             C2v       
 Group number             16
 Group order               4
 No. of unique centers     2

      Symmetry unique atoms

     1    2



                                Z-matrix (autoz)
                                -------- 

 Units are Angstrom for bonds and degrees for angles

      Type          Name      I     J     K     L     M      Value
      ----------- --------  ----- ----- ----- ----- ----- ----------
    1 Stretch                  1     2                       1.12245
    2 Stretch                  1     3                       1.12245
    3 Bend                     2     1     3               120.45993


            XYZ format geometry
            -------------------
     3
 geometry
 o                     0.00000000     0.00000000     0.11146380
 h                    -0.97431500     0.00000000    -0.44585520
 h                     0.97431500     0.00000000    -0.44585520



 Summary of "ao basis" -> "" (cartesian)
 ------------------------------------------------------------------------------
       Tag                 Description            Shells   Functions and Types
 ---------------- ------------------------------  ------  ---------------------
 *                          cc-pvdz                   on all atoms 




                           NWChem Geometry Optimization
                           ----------------------------




                                        h2o


 maximum gradient threshold         (gmax) =   0.000450
 rms gradient threshold             (grms) =   0.000300
 maximum cartesian step threshold   (xmax) =   0.001800
 rms cartesian step threshold       (xrms) =   0.001200
 fixed trust radius                (trust) =   0.300000
 maximum step size to saddle      (sadstp) =   0.100000
 energy precision                  (eprec) =   1.0D-07
 maximum number of steps          (nptopt) =   20
 initial hessian option           (inhess) =    0
 line search option               (linopt) =    1
 hessian update option            (modupd) =    1
 saddle point option              (modsad) =    0
 initial eigen-mode to follow     (moddir) =    0
 initial variable to follow       (vardir) =    0
 follow first negative mode     (firstneg) =    T
 apply conjugacy                    (opcg) =    F
 source of zmatrix                         =   autoz   


          -------------------
          Energy Minimization
          -------------------


 Names of Z-matrix variables 
    1              2              3         

 Variables with the same non-blank name are constrained to be equal


 Using old Hessian from previous optimization

          --------
          Step   0
          --------


                         Geometry "geometry" -> "geometry"
                         ---------------------------------

 Output coordinates in a.u. (scale by  1.000000000 to convert to a.u.)

  No.       Tag          Charge          X              Y              Z
 ---- ---------------- ---------- -------------- -------------- --------------
    1 o                    8.0000     0.00000000     0.00000000     0.21063604
    2 h                    1.0000    -1.84118838     0.00000000    -0.84254416
    3 h                    1.0000     1.84118838     0.00000000    -0.84254416

      Atomic Mass 
      ----------- 

      o                 15.994910
      h                  1.007825


 Effective nuclear repulsion energy (a.u.)       7.8147374646

            Nuclear Dipole moment (a.u.) 
            ----------------------------
        X                 Y               Z
 ---------------- ---------------- ----------------
     0.0000000000     0.0000000000     0.0000000000

      Symmetry information
      --------------------

 Group name             C2v       
 Group number             16
 Group order               4
 No. of unique centers     2

      Symmetry unique atoms

     1    2

                      Basis "ao basis" -> "ao basis" (cartesian)
                      -----
  o (Oxygen)
  ----------
            Exponent  Coefficients 
       -------------- ---------------------------------------------------------
  1 S  1.17200000E+04  0.000710
  1 S  1.75900000E+03  0.005470
  1 S  4.00800000E+02  0.027837
  1 S  1.13700000E+02  0.104800
  1 S  3.70300000E+01  0.283062
  1 S  1.32700000E+01  0.448719
  1 S  5.02500000E+00  0.270952
  1 S  1.01300000E+00  0.015458

  2 S  1.17200000E+04 -0.000160
  2 S  1.75900000E+03 -0.001263
  2 S  4.00800000E+02 -0.006267
  2 S  1.13700000E+02 -0.025716
  2 S  3.70300000E+01 -0.070924
  2 S  1.32700000E+01 -0.165411
  2 S  5.02500000E+00 -0.116955
  2 S  1.01300000E+00  0.557368

  3 S  3.02300000E-01  1.000000

  4 P  1.77000000E+01  0.043018
  4 P  3.85400000E+00  0.228913
  4 P  1.04600000E+00  0.508728

  5 P  2.75300000E-01  1.000000

  6 D  1.18500000E+00  1.000000

  h (Hydrogen)
  ------------
            Exponent  Coefficients 
       -------------- ---------------------------------------------------------
  1 S  1.30100000E+01  0.019685
  1 S  1.96200000E+00  0.137977
  1 S  4.44600000E-01  0.478148

  2 S  1.22000000E-01  1.000000

  3 P  7.27000000E-01  1.000000



 Summary of "ao basis" -> "ao basis" (cartesian)
 ------------------------------------------------------------------------------
       Tag                 Description            Shells   Functions and Types
 ---------------- ------------------------------  ------  ---------------------
 o                          cc-pvdz                  6       15   3s2p1d
 h                          cc-pvdz                  3        5   2s1p


                                 NWChem SCF Module
                                 -----------------


                                        h2o



  ao basis        = "ao basis"
  functions       =    25
  atoms           =     3
  closed shells   =     5
  open shells     =     0
  charge          =   0.00
  wavefunction    = RHF 
  input vectors   = atomic
  output vectors  = ./prop_h2o_run.movecs
  use symmetry    = T
  symmetry adapt  = T


 Summary of "ao basis" -> "ao basis" (cartesian)
 ------------------------------------------------------------------------------
       Tag                 Description            Shells   Functions and Types
 ---------------- ------------------------------  ------  ---------------------
 o                          cc-pvdz                  6       15   3s2p1d
 h                          cc-pvdz                  3        5   2s1p


      Symmetry analysis of basis
      --------------------------

        a1         12
        a2          2
        b1          7
        b2          4


 Forming initial guess at       0.0s


      Superposition of Atomic Density Guess
      -------------------------------------

 Sum of atomic energies:         -75.76222910

      Non-variational initial energy
      ------------------------------

 Total energy =     -75.617583
 1-e energy   =    -119.460405
 2-e energy   =      36.028084
 HOMO         =      -0.427234
 LUMO         =       0.030612


      Symmetry analysis of molecular orbitals - initial
      -------------------------------------------------

  Numbering of irreducible representations: 

     1 a1          2 a2          3 b1          4 b2      

  Orbital symmetries:

     1 a1          2 a1          3 b1          4 a1          5 b2      
     6 a1          7 b1          8 a1          9 b1         10 a1      
    11 b2         12 b1         13 a2         14 a1         15 b2      


 Starting SCF solution at       0.0s



 ----------------------------------------------
         Quadratically convergent ROHF

 Convergence threshold     :          1.000E-04
 Maximum no. of iterations :           30
 Final Fock-matrix accuracy:          1.000E-07
 ----------------------------------------------


 #quartets = 1.953D+03 #integrals = 1.805D+04 #direct =  0.0% #cached =100.0%


 Integral file          = ./prop_h2o_run.aoints.0
 Record size in doubles =    65536    No. of integs per rec  =    43688
 Max. records in memory =        2    Max. records in file   =  1513518
 No. of bits per label  =        8    No. of bits per value  =       64


              iter       energy          gnorm     gmax       time
             ----- ------------------- --------- --------- --------
                 1      -75.9292665836  8.60D-01  3.52D-01      0.1
                 2      -75.9673931814  2.14D-01  1.03D-01      0.1
                 3      -75.9706433167  5.08D-02  2.65D-02      0.1
                 4      -75.9709170039  1.02D-03  5.51D-04      0.1
                 5      -75.9709171974  4.68D-06  2.26D-06      0.1


       Final RHF  results 
       ------------------ 

         Total SCF energy =    -75.970917197434
      One-electron energy =   -120.672044194691
      Two-electron energy =     36.886389532686
 Nuclear repulsion energy =      7.814737464571

        Time for solution =      0.0s



       Symmetry analysis of molecular orbitals - final
       -----------------------------------------------

  Numbering of irreducible representations: 

     1 a1          2 a2          3 b1          4 b2      

  Orbital symmetries:

     1 a1          2 a1          3 b1          4 a1          5 b2      
     6 a1          7 b1          8 a1          9 b1         10 a1      
    11 b2         12 b1         13 a2         14 a1         15 b2      

             Final eigenvalues
             -----------------

              1      
    1  -20.5661
    2   -1.2593
    3   -0.6388
    4   -0.5080
    5   -0.4774
    6    0.1451
    7    0.2282
    8    0.6738
    9    0.7436
   10    1.1708
   11    1.1908
   12    1.2519
   13    1.4190
   14    1.5093
   15    1.7039

                       ROHF Final Molecular Orbital Analysis
                       -------------------------------------

 Vector    2  Occ=2.000000D+00  E=-1.259342D+00  Symmetry=a1
              MO Center=  1.2D-17, -3.7D-18,  6.7D-03, r^2= 5.3D-01
   Bfn.  Coefficient  Atom+Function         Bfn.  Coefficient  Atom+Function  
  ----- ------------  ---------------      ----- ------------  ---------------
     3      0.475190  1 O  s                  2      0.455401  1 O  s          
    16      0.129870  2 H  s                 21      0.129870  3 H  s          
     6     -0.041916  1 O  pz                18      0.025545  2 H  px         
    23     -0.025545  3 H  px                17      0.015787  2 H  s          
    22      0.015787  3 H  s          

 Vector    3  Occ=2.000000D+00  E=-6.388327D-01  Symmetry=b1
              MO Center=  2.2D-16, -3.0D-17, -1.1D-01, r^2= 9.6D-01
   Bfn.  Coefficient  Atom+Function         Bfn.  Coefficient  Atom+Function  
  ----- ------------  ---------------      ----- ------------  ---------------
     4      0.462774  1 O  px                16     -0.302792  2 H  s          
    21      0.302792  3 H  s                  7      0.247499  1 O  px         
    17     -0.113985  2 H  s                 22      0.113985  3 H  s          
    12     -0.035293  1 O  dxz               18     -0.030462  2 H  px         
    23     -0.030462  3 H  px                20     -0.023731  2 H  pz         

 Vector    4  Occ=2.000000D+00  E=-5.079510D-01  Symmetry=a1
              MO Center= -1.7D-16,  6.5D-33,  9.6D-02, r^2= 7.9D-01
   Bfn.  Coefficient  Atom+Function         Bfn.  Coefficient  Atom+Function  
  ----- ------------  ---------------      ----- ------------  ---------------
     6      0.548989  1 O  pz                 9      0.415584  1 O  pz         
     3      0.273968  1 O  s                 16     -0.184524  2 H  s          
    21     -0.184524  3 H  s                  2      0.125069  1 O  s          
    17     -0.078071  2 H  s                 22     -0.078071  3 H  s          
    18     -0.022281  2 H  px                23      0.022281  3 H  px         

 Vector    5  Occ=2.000000D+00  E=-4.774245D-01  Symmetry=b2
              MO Center= -4.3D-17, -3.5D-16,  9.6D-02, r^2= 6.0D-01
   Bfn.  Coefficient  Atom+Function         Bfn.  Coefficient  Atom+Function  
  ----- ------------  ---------------      ----- ------------  ---------------
     5      0.635100  1 O  py                 8      0.502944  1 O  py         
    14     -0.025113  1 O  dyz               19      0.024233  2 H  py         
    24      0.024233  3 H  py         

 Vector    6  Occ=0.000000D+00  E= 1.451279D-01  Symmetry=a1
              MO Center= -2.4D-16, -3.4D-17, -4.8D-01, r^2= 3.0D+00
   Bfn.  Coefficient  Atom+Function         Bfn.  Coefficient  Atom+Function  
  ----- ------------  ---------------      ----- ------------  ---------------
     3      0.911016  1 O  s                 17     -0.748887  2 H  s          
    22     -0.748887  3 H  s                  9     -0.351189  1 O  pz         
     6     -0.231711  1 O  pz                16     -0.138326  2 H  s          
    21     -0.138326  3 H  s                  2      0.102313  1 O  s          
     1     -0.049144  1 O  s                 10     -0.033475  1 O  dxx        

 Vector    7  Occ=0.000000D+00  E= 2.281625D-01  Symmetry=b1
              MO Center=  3.9D-16, -5.3D-19, -5.2D-01, r^2= 3.6D+00
   Bfn.  Coefficient  Atom+Function         Bfn.  Coefficient  Atom+Function  
  ----- ------------  ---------------      ----- ------------  ---------------
    17      1.122886  2 H  s                 22     -1.122886  3 H  s          
     7      0.675721  1 O  px                 4      0.325921  1 O  px         
    16      0.055516  2 H  s                 21     -0.055516  3 H  s          
    12     -0.018077  1 O  dxz        

 Vector    8  Occ=0.000000D+00  E= 6.737701D-01  Symmetry=a1
              MO Center=  1.4D-16,  3.9D-17, -5.0D-01, r^2= 2.2D+00
   Bfn.  Coefficient  Atom+Function         Bfn.  Coefficient  Atom+Function  
  ----- ------------  ---------------      ----- ------------  ---------------
    16      0.898667  2 H  s                 21      0.898667  3 H  s          
    17     -0.678277  2 H  s                 22     -0.678277  3 H  s          
     3      0.301004  1 O  s                  6      0.217743  1 O  pz         
     2     -0.202059  1 O  s                 18     -0.143635  2 H  px         
    23      0.143635  3 H  px                 9      0.095662  1 O  pz         

 Vector    9  Occ=0.000000D+00  E= 7.436148D-01  Symmetry=b1
              MO Center=  2.8D-16,  2.3D-20, -3.2D-01, r^2= 2.3D+00
   Bfn.  Coefficient  Atom+Function         Bfn.  Coefficient  Atom+Function  
  ----- ------------  ---------------      ----- ------------  ---------------
    16      0.924034  2 H  s                 21     -0.924034  3 H  s          
    17     -0.828634  2 H  s                 22      0.828634  3 H  s          
     4      0.348785  1 O  px                 7      0.173688  1 O  px         
    12      0.152814  1 O  dxz               20     -0.132905  2 H  pz         
    25      0.132905  3 H  pz                18     -0.057936  2 H  px         

 Vector   10  Occ=0.000000D+00  E= 1.170773D+00  Symmetry=a1
              MO Center= -4.7D-17,  9.1D-18,  9.7D-02, r^2= 1.2D+00
   Bfn.  Coefficient  Atom+Function         Bfn.  Coefficient  Atom+Function  
  ----- ------------  ---------------      ----- ------------  ---------------
     9      1.008117  1 O  pz                 6     -0.839290  1 O  pz         
     3     -0.280982  1 O  s                 20      0.270875  2 H  pz         
    25      0.270875  3 H  pz                16      0.202854  2 H  s          
    21      0.202854  3 H  s                 17      0.113833  2 H  s          
    22      0.113833  3 H  s                 18      0.079635  2 H  px         

 Vector   11  Occ=0.000000D+00  E= 1.190809D+00  Symmetry=b2
              MO Center=  1.4D-17, -1.4D-17,  4.2D-02, r^2= 1.1D+00
   Bfn.  Coefficient  Atom+Function         Bfn.  Coefficient  Atom+Function  
  ----- ------------  ---------------      ----- ------------  ---------------
     5      0.941867  1 O  py                 8     -0.924915  1 O  py         
    19     -0.133451  2 H  py                24     -0.133451  3 H  py         

 Vector   12  Occ=0.000000D+00  E= 1.251923D+00  Symmetry=b1
              MO Center= -3.5D-16, -2.4D-19,  9.2D-02, r^2= 1.6D+00
   Bfn.  Coefficient  Atom+Function         Bfn.  Coefficient  Atom+Function  
  ----- ------------  ---------------      ----- ------------  ---------------
     7      1.527892  1 O  px                 4     -0.696879  1 O  px         
    17      0.535156  2 H  s                 22     -0.535156  3 H  s          
    18      0.416541  2 H  px                23      0.416541  3 H  px         
    16      0.329059  2 H  s                 21     -0.329059  3 H  s          
    20     -0.055786  2 H  pz                25      0.055786  3 H  pz         

 Vector   13  Occ=0.000000D+00  E= 1.419045D+00  Symmetry=a2
              MO Center= -2.3D-15,  2.3D-16, -4.1D-01, r^2= 1.4D+00
   Bfn.  Coefficient  Atom+Function         Bfn.  Coefficient  Atom+Function  
  ----- ------------  ---------------      ----- ------------  ---------------
    19      0.674529  2 H  py                24     -0.674529  3 H  py         
    11     -0.256878  1 O  dxy        

 Vector   14  Occ=0.000000D+00  E= 1.509282D+00  Symmetry=a1
              MO Center=  1.1D-16,  2.9D-16,  6.8D-02, r^2= 1.6D+00
   Bfn.  Coefficient  Atom+Function         Bfn.  Coefficient  Atom+Function  
  ----- ------------  ---------------      ----- ------------  ---------------
     3      1.929581  1 O  s                  2     -1.042676  1 O  s          
     1     -0.498635  1 O  s                 20     -0.442966  2 H  pz         
    25     -0.442966  3 H  pz                17     -0.340118  2 H  s          
    22     -0.340118  3 H  s                 10     -0.306529  1 O  dxx        
     9      0.262577  1 O  pz                13     -0.213422  1 O  dyy        

 Vector   15  Occ=0.000000D+00  E= 1.703919D+00  Symmetry=b2
              MO Center=  2.3D-15, -8.2D-19, -2.7D-01, r^2= 1.6D+00
   Bfn.  Coefficient  Atom+Function         Bfn.  Coefficient  Atom+Function  
  ----- ------------  ---------------      ----- ------------  ---------------
    19     -0.745248  2 H  py                24     -0.745248  3 H  py         
     8      0.691827  1 O  py                14      0.243434  1 O  dyz        
     5     -0.224011  1 O  py         


 center of mass
 --------------
 x =   0.00000000 y =   0.00000000 z =   0.09276948

 moments of inertia (a.u.)
 ------------------
           1.985523714464           0.000000000000           0.000000000000
           0.000000000000           8.818526119040           0.000000000000
           0.000000000000           0.000000000000           6.833002404577

  Mulliken analysis of the total density
  --------------------------------------

    Atom       Charge   Shell Charges
 -----------   ------   -------------------------------------------------------
    1 O    8     8.50   2.00  0.84  0.95  2.72  1.98  0.01
    2 H    1     0.75   0.57  0.13  0.06
    3 H    1     0.75   0.57  0.13  0.06

       Multipole analysis of the density wrt the origin
       ------------------------------------------------

     L   x y z        total         open         nuclear
     -   - - -        -----         ----         -------
     0   0 0 0     -0.000000      0.000000     10.000000

     1   1 0 0      0.000000      0.000000      0.000000
     1   0 1 0      0.000000      0.000000      0.000000
     1   0 0 1     -0.741199      0.000000      0.000000

     2   2 0 0     -2.122383      0.000000      6.779949
     2   1 1 0     -0.000000      0.000000      0.000000
     2   1 0 1      0.000000      0.000000      0.000000
     2   0 2 0     -5.512468      0.000000      0.000000
     2   0 1 1      0.000000      0.000000      0.000000
     2   0 0 2     -4.783858      0.000000      1.774702


 Parallel integral file used       1 records with       0 large values

                              NWChem Gradients Module
                              -----------------------


                                        h2o


  wavefunction    =   RHF     

  Using symmetry


                         RHF ENERGY GRADIENTS

    atom               coordinates                        gradient
                 x          y          z           x          y          z
   1 o       0.000000   0.000000   0.210636    0.000000   0.000000   0.075206
   2 h      -1.841188   0.000000  -0.842544   -0.115809   0.000000  -0.037603
   3 h       1.841188   0.000000  -0.842544    0.115809   0.000000  -0.037603

                 ----------------------------------------
                 |  Time  |  1-e(secs)   |  2-e(secs)   |
                 ----------------------------------------
                 |  CPU   |       0.00   |       0.08   |
                 ----------------------------------------
                 |  WALL  |       0.00   |       0.08   |
                 ----------------------------------------

@ Step       Energy      Delta E   Gmax     Grms     Xrms     Xmax   Walltime
@ ---- ---------------- -------- -------- -------- -------- -------- --------
@    0     -75.97091720  0.0D+00  0.11920  0.09865  0.00000  0.00000      0.2
                                                                    



                                Z-matrix (autoz)
                                -------- 

 Units are Angstrom for bonds and degrees for angles

      Type          Name      I     J     K     L     M      Value     Gradient
      ----------- --------  ----- ----- ----- ----- ----- ---------- ----------
    1 Stretch                  1     2                       1.12245    0.11920
    2 Stretch                  1     3                       1.12245    0.11920
    3 Bend                     2     1     3               120.45993    0.02791

 Restricting large step in mode    1 eval= 4.7D-02 step=-3.2D-01 new=-3.0D-01
 Restricting large step in mode    3 eval= 5.1D-01 step=-3.3D-01 new=-3.0D-01
 Restricting overall step due to large component. alpha=  0.93
                                 NWChem SCF Module
                                 -----------------


                                        h2o



  ao basis        = "ao basis"
  functions       =    25
  atoms           =     3
  closed shells   =     5
  open shells     =     0
  charge          =   0.00
  wavefunction    = RHF 
  input vectors   = ./prop_h2o_run.movecs
  output vectors  = ./prop_h2o_run.movecs
  use symmetry    = T
  symmetry adapt  = T


 Summary of "ao basis" -> "ao basis" (cartesian)
 ------------------------------------------------------------------------------
       Tag                 Description            Shells   Functions and Types
 ---------------- ------------------------------  ------  ---------------------
 o                          cc-pvdz                  6       15   3s2p1d
 h                          cc-pvdz                  3        5   2s1p


      Symmetry analysis of basis
      --------------------------

        a1         12
        a2          2
        b1          7
        b2          4


 Forming initial guess at       0.2s


 Loading old vectors from job with title :

h2o


      Symmetry analysis of molecular orbitals - initial
      -------------------------------------------------

  Numbering of irreducible representations: 

     1 a1          2 a2          3 b1          4 b2      

  Orbital symmetries:

     1 a1          2 a1          3 b1          4 a1          5 b2      
     6 a1          7 b1          8 a1          9 b1         10 a1      
    11 b2         12 b1         13 a2         14 a1         15 b2      


 Starting SCF solution at       0.2s



 ----------------------------------------------
         Quadratically convergent ROHF

 Convergence threshold     :          1.000E-04
 Maximum no. of iterations :           30
 Final Fock-matrix accuracy:          1.000E-07
 ----------------------------------------------


 #quartets = 1.953D+03 #integrals = 1.805D+04 #direct =  0.0% #cached =100.0%


 Integral file          = ./prop_h2o_run.aoints.0
 Record size in doubles =    65536    No. of integs per rec  =    43688
 Max. records in memory =        2    Max. records in file   =  1513518
 No. of bits per label  =        8    No. of bits per value  =       64


              iter       energy          gnorm     gmax       time
             ----- ------------------- --------- --------- --------
                 1      -76.0083655799  2.88D-01  1.12D-01      0.2
                 2      -76.0132045240  7.97D-02  3.91D-02      0.2
                 3      -76.0135642368  4.14D-03  2.42D-03      0.2
                 4      -76.0135670698  5.08D-06  2.92D-06      0.2


       Final RHF  results 
       ------------------ 

         Total SCF energy =    -76.013567069841
      One-electron energy =   -122.032595679351
      Two-electron energy =     37.454695189642
 Nuclear repulsion energy =      8.564333419869

        Time for solution =      0.0s



       Symmetry analysis of molecular orbitals - final
       -----------------------------------------------

  Numbering of irreducible representations: 

     1 a1          2 a2          3 b1          4 b2      

  Orbital symmetries:

     1 a1          2 a1          3 b1          4 a1          5 b2      
     6 a1          7 b1          8 a1          9 b1         10 a1      
    11 b2         12 b1         13 a2         14 a1         15 b2      

             Final eigenvalues
             -----------------

              1      
    1  -20.5591
    2   -1.3002
    3   -0.6751
    4   -0.5408
    5   -0.4864
    6    0.1708
    7    0.2448
    8    0.7661
    9    0.7671
   10    1.1632
   11    1.1986
   12    1.2503
   13    1.4427
   14    1.4729
   15    1.6951

                       ROHF Final Molecular Orbital Analysis
                       -------------------------------------

 Vector    2  Occ=2.000000D+00  E=-1.300220D+00  Symmetry=a1
              MO Center= -2.9D-18, -4.1D-18, -1.5D-02, r^2= 5.2D-01
   Bfn.  Coefficient  Atom+Function         Bfn.  Coefficient  Atom+Function  
  ----- ------------  ---------------      ----- ------------  ---------------
     2      0.448525  1 O  s                  3      0.420291  1 O  s          
    16      0.163504  2 H  s                 21      0.163504  3 H  s          
     6     -0.061711  1 O  pz                18      0.032892  2 H  px         
    23     -0.032892  3 H  px                20      0.015927  2 H  pz         
    25      0.015927  3 H  pz         

 Vector    3  Occ=2.000000D+00  E=-6.751356D-01  Symmetry=b1
              MO Center= -9.0D-18, -2.8D-34, -1.0D-01, r^2= 8.4D-01
   Bfn.  Coefficient  Atom+Function         Bfn.  Coefficient  Atom+Function  
  ----- ------------  ---------------      ----- ------------  ---------------
     4      0.477741  1 O  px                16     -0.317808  2 H  s          
    21      0.317808  3 H  s                  7      0.231300  1 O  px         
    17     -0.098545  2 H  s                 22      0.098545  3 H  s          
    12     -0.040544  1 O  dxz               20     -0.029585  2 H  pz         
    25      0.029585  3 H  pz                18     -0.026744  2 H  px         

 Vector    4  Occ=2.000000D+00  E=-5.407902D-01  Symmetry=a1
              MO Center= -1.3D-17,  1.3D-32,  1.4D-01, r^2= 7.2D-01
   Bfn.  Coefficient  Atom+Function         Bfn.  Coefficient  Atom+Function  
  ----- ------------  ---------------      ----- ------------  ---------------
     6      0.547614  1 O  pz                 9      0.388663  1 O  pz         
     3      0.323509  1 O  s                 16     -0.196363  2 H  s          
    21     -0.196363  3 H  s                  2      0.140385  1 O  s          
    17     -0.057778  2 H  s                 22     -0.057778  3 H  s          
    18     -0.027858  2 H  px                23      0.027858  3 H  px         

 Vector    5  Occ=2.000000D+00  E=-4.863984D-01  Symmetry=b2
              MO Center= -4.1D-17, -3.3D-16,  1.1D-01, r^2= 6.0D-01
   Bfn.  Coefficient  Atom+Function         Bfn.  Coefficient  Atom+Function  
  ----- ------------  ---------------      ----- ------------  ---------------
     5      0.632829  1 O  py                 8      0.499477  1 O  py         
    14     -0.028697  1 O  dyz               19      0.027956  2 H  py         
    24      0.027956  3 H  py         

 Vector    6  Occ=0.000000D+00  E= 1.708323D-01  Symmetry=a1
              MO Center=  1.3D-16, -2.2D-17, -5.6D-01, r^2= 3.0D+00
   Bfn.  Coefficient  Atom+Function         Bfn.  Coefficient  Atom+Function  
  ----- ------------  ---------------      ----- ------------  ---------------
     3      1.012927  1 O  s                 17     -0.809029  2 H  s          
    22     -0.809029  3 H  s                  9     -0.351309  1 O  pz         
     6     -0.207374  1 O  pz                 2      0.088260  1 O  s          
    16     -0.088456  2 H  s                 21     -0.088456  3 H  s          
     1     -0.055078  1 O  s                 13     -0.038081  1 O  dyy        

 Vector    7  Occ=0.000000D+00  E= 2.448300D-01  Symmetry=b1
              MO Center=  6.0D-16,  1.0D-32, -5.7D-01, r^2= 3.6D+00
   Bfn.  Coefficient  Atom+Function         Bfn.  Coefficient  Atom+Function  
  ----- ------------  ---------------      ----- ------------  ---------------
    17      1.292861  2 H  s                 22     -1.292861  3 H  s          
     7      0.675641  1 O  px                 4      0.300663  1 O  px         
    16      0.037423  2 H  s                 21     -0.037423  3 H  s          
    12     -0.028563  1 O  dxz               18      0.016865  2 H  px         
    23      0.016865  3 H  px         

 Vector    8  Occ=0.000000D+00  E= 7.661056D-01  Symmetry=a1
              MO Center=  1.8D-16,  2.4D-17, -4.8D-01, r^2= 1.8D+00
   Bfn.  Coefficient  Atom+Function         Bfn.  Coefficient  Atom+Function  
  ----- ------------  ---------------      ----- ------------  ---------------
    16      0.865380  2 H  s                 21      0.865380  3 H  s          
    17     -0.593613  2 H  s                 22     -0.593613  3 H  s          
     6      0.274083  1 O  pz                 3      0.264146  1 O  s          
     2     -0.239673  1 O  s                 18     -0.224513  2 H  px         
    23      0.224513  3 H  px                10      0.087716  1 O  dxx        

 Vector    9  Occ=0.000000D+00  E= 7.671461D-01  Symmetry=b1
              MO Center=  2.0D-17, -2.0D-32, -2.7D-01, r^2= 1.9D+00
   Bfn.  Coefficient  Atom+Function         Bfn.  Coefficient  Atom+Function  
  ----- ------------  ---------------      ----- ------------  ---------------
    16      0.934220  2 H  s                 21     -0.934220  3 H  s          
    17     -0.755762  2 H  s                 22      0.755762  3 H  s          
     7      0.334554  1 O  px                 4      0.307129  1 O  px         
    12      0.180187  1 O  dxz               20     -0.148213  2 H  pz         
    25      0.148213  3 H  pz                18     -0.060794  2 H  px         

 Vector   10  Occ=0.000000D+00  E= 1.163208D+00  Symmetry=a1
              MO Center=  1.0D-16,  4.6D-18,  1.5D-01, r^2= 1.2D+00
   Bfn.  Coefficient  Atom+Function         Bfn.  Coefficient  Atom+Function  
  ----- ------------  ---------------      ----- ------------  ---------------
     9      1.137555  1 O  pz                 6     -0.802099  1 O  pz         
     3     -0.451707  1 O  s                 16      0.358950  2 H  s          
    21      0.358950  3 H  s                 20      0.264012  2 H  pz         
    25      0.264012  3 H  pz                17      0.115175  2 H  s          
    22      0.115175  3 H  s                 18      0.099880  2 H  px         

 Vector   11  Occ=0.000000D+00  E= 1.198557D+00  Symmetry=b2
              MO Center=  4.9D-39, -1.1D-19,  8.9D-02, r^2= 1.1D+00
   Bfn.  Coefficient  Atom+Function         Bfn.  Coefficient  Atom+Function  
  ----- ------------  ---------------      ----- ------------  ---------------
     8     -0.975799  1 O  py                 5      0.962477  1 O  py         
    19     -0.068386  2 H  py                24     -0.068386  3 H  py         

 Vector   12  Occ=0.000000D+00  E= 1.250261D+00  Symmetry=b1
              MO Center=  5.3D-17, -8.1D-33,  1.4D-01, r^2= 1.7D+00
   Bfn.  Coefficient  Atom+Function         Bfn.  Coefficient  Atom+Function  
  ----- ------------  ---------------      ----- ------------  ---------------
     7      1.694650  1 O  px                 4     -0.731218  1 O  px         
    17      0.698421  2 H  s                 22     -0.698421  3 H  s          
    16      0.364513  2 H  s                 21     -0.364513  3 H  s          
    18      0.355962  2 H  px                23      0.355962  3 H  px         
    20      0.096202  2 H  pz                25     -0.096202  3 H  pz         

 Vector   13  Occ=0.000000D+00  E= 1.442723D+00  Symmetry=a2
              MO Center=  5.4D-18,  2.9D-33, -4.1D-01, r^2= 1.2D+00
   Bfn.  Coefficient  Atom+Function         Bfn.  Coefficient  Atom+Function  
  ----- ------------  ---------------      ----- ------------  ---------------
    19      0.677260  2 H  py                24     -0.677260  3 H  py         
    11     -0.241017  1 O  dxy        

 Vector   14  Occ=0.000000D+00  E= 1.472921D+00  Symmetry=a1
              MO Center=  4.4D-18,  1.8D-16,  1.5D-02, r^2= 1.5D+00
   Bfn.  Coefficient  Atom+Function         Bfn.  Coefficient  Atom+Function  
  ----- ------------  ---------------      ----- ------------  ---------------
     3      1.553850  1 O  s                  2     -0.850609  1 O  s          
    20     -0.491642  2 H  pz                25     -0.491642  3 H  pz         
     9      0.409031  1 O  pz                 1     -0.398574  1 O  s          
    17     -0.317171  2 H  s                 22     -0.317171  3 H  s          
    10     -0.251689  1 O  dxx               18      0.225294  2 H  px         

 Vector   15  Occ=0.000000D+00  E= 1.695122D+00  Symmetry=b2
              MO Center= -6.8D-19,  4.0D-20, -2.7D-01, r^2= 1.4D+00
   Bfn.  Coefficient  Atom+Function         Bfn.  Coefficient  Atom+Function  
  ----- ------------  ---------------      ----- ------------  ---------------
    19      0.760177  2 H  py                24      0.760177  3 H  py         
     8     -0.669679  1 O  py                14     -0.277663  1 O  dyz        
     5      0.097850  1 O  py         


 center of mass
 --------------
 x =   0.00000000 y =   0.00000000 z =   0.11492789

 moments of inertia (a.u.)
 ------------------
           2.138985612744           0.000000000000           0.000000000000
           0.000000000000           7.307947377397           0.000000000000
           0.000000000000           0.000000000000           5.168961764652

  Mulliken analysis of the total density
  --------------------------------------

    Atom       Charge   Shell Charges
 -----------   ------   -------------------------------------------------------
    1 O    8     8.40   2.00  0.83  0.88  2.78  1.89  0.01
    2 H    1     0.80   0.63  0.09  0.07
    3 H    1     0.80   0.63  0.09  0.07

       Multipole analysis of the density wrt the origin
       ------------------------------------------------

     L   x y z        total         open         nuclear
     -   - - -        -----         ----         -------
     0   0 0 0     -0.000000      0.000000     10.000000

     1   1 0 0      0.000000      0.000000      0.000000
     1   0 1 0      0.000000      0.000000      0.000000
     1   0 0 1     -0.788462      0.000000      0.186400

     2   2 0 0     -2.711341      0.000000      5.128829
     2   1 1 0     -0.000000      0.000000      0.000000
     2   1 0 1     -0.000000      0.000000      0.000000
     2   0 2 0     -5.350020      0.000000      0.000000
     2   0 1 1      0.000000      0.000000      0.000000
     2   0 0 2     -4.574671      0.000000      1.915344


 Parallel integral file used       1 records with       0 large values

 Line search: 
     step= 0.93 grad=-5.6D-02 hess= 1.1D-02 energy=    -76.013567 mode=downhill
 new step= 2.64                   predicted energy=    -76.044165

          --------
          Step   1
          --------


                         Geometry "geometry" -> "geometry"
                         ---------------------------------

 Output coordinates in a.u. (scale by  1.000000000 to convert to a.u.)

  No.       Tag          Charge          X              Y              Z
 ---- ---------------- ---------- -------------- -------------- --------------
    1 o                    8.0000     0.00000000     0.00000000     0.23357830
    2 h                    1.0000    -1.18154750     0.00000000    -0.85401529
    3 h                    1.0000     1.18154750     0.00000000    -0.85401529

      Atomic Mass 
      ----------- 

      o                 15.994910
      h                  1.007825


 Effective nuclear repulsion energy (a.u.)      10.3864353004

            Nuclear Dipole moment (a.u.) 
            ----------------------------
        X                 Y               Z
 ---------------- ---------------- ----------------
     0.0000000000     0.0000000000     0.1605958306

      Symmetry information
      --------------------

 Group name             C2v       
 Group number             16
 Group order               4
 No. of unique centers     2

      Symmetry unique atoms

     1    2

                                 NWChem SCF Module
                                 -----------------


                                        h2o



  ao basis        = "ao basis"
  functions       =    25
  atoms           =     3
  closed shells   =     5
  open shells     =     0
  charge          =   0.00
  wavefunction    = RHF 
  input vectors   = ./prop_h2o_run.movecs
  output vectors  = ./prop_h2o_run.movecs
  use symmetry    = T
  symmetry adapt  = T


 Summary of "ao basis" -> "ao basis" (cartesian)
 ------------------------------------------------------------------------------
       Tag                 Description            Shells   Functions and Types
 ---------------- ------------------------------  ------  ---------------------
 o                          cc-pvdz                  6       15   3s2p1d
 h                          cc-pvdz                  3        5   2s1p


      Symmetry analysis of basis
      --------------------------

        a1         12
        a2          2
        b1          7
        b2          4


 Forming initial guess at       0.3s


 Loading old vectors from job with title :

h2o


      Symmetry analysis of molecular orbitals - initial
      -------------------------------------------------

  Numbering of irreducible representations: 

     1 a1          2 a2          3 b1          4 b2      

  Orbital symmetries:

     1 a1          2 a1          3 b1          4 a1          5 b2      
     6 a1          7 b1          8 a1          9 b1         10 a1      
    11 b2         12 b1         13 a2         14 a1         15 b2      


 Starting SCF solution at       0.3s



 ----------------------------------------------
         Quadratically convergent ROHF

 Convergence threshold     :          1.000E-04
 Maximum no. of iterations :           30
 Final Fock-matrix accuracy:          1.000E-07
 ----------------------------------------------


 #quartets = 1.953D+03 #integrals = 1.805D+04 #direct =  0.0% #cached =100.0%


 Integral file          = ./prop_h2o_run.aoints.0
 Record size in doubles =    65536    No. of integs per rec  =    43688
 Max. records in memory =        2    Max. records in file   =  1513518
 No. of bits per label  =        8    No. of bits per value  =       64


              iter       energy          gnorm     gmax       time
             ----- ------------------- --------- --------- --------
                 1      -75.9732424036  6.28D-01  2.41D-01      0.2
                 2      -75.9948897082  1.67D-01  7.56D-02      0.3
                 3      -75.9963697485  9.01D-03  4.85D-03      0.3
                 4      -75.9963800485  4.15D-05  1.78D-05      0.3


       Final RHF  results 
       ------------------ 

         Total SCF energy =    -75.996380048499
      One-electron energy =   -125.169136168107
      Two-electron energy =     38.786320819182
 Nuclear repulsion energy =     10.386435300426

        Time for solution =      0.0s



       Symmetry analysis of molecular orbitals - final
       -----------------------------------------------

  Numbering of irreducible representations: 

     1 a1          2 a2          3 b1          4 b2      

  Orbital symmetries:

     1 a1          2 a1          3 b1          4 a1          5 b2      
     6 a1          7 b1          8 b1          9 a1         10 a1      
    11 b2         12 b1         13 a1         14 a2         15 b2      

             Final eigenvalues
             -----------------

              1      
    1  -20.5360
    2   -1.4106
    3   -0.7374
    4   -0.6082
    5   -0.5061
    6    0.1956
    7    0.2717
    8    0.8426
    9    1.0071
   10    1.1731
   11    1.1878
   12    1.2611
   13    1.3488
   14    1.5508
   15    1.6424

                       ROHF Final Molecular Orbital Analysis
                       -------------------------------------

 Vector    2  Occ=2.000000D+00  E=-1.410620D+00  Symmetry=a1
              MO Center= -3.5D-18, -1.2D-34, -9.6D-02, r^2= 4.6D-01
   Bfn.  Coefficient  Atom+Function         Bfn.  Coefficient  Atom+Function  
  ----- ------------  ---------------      ----- ------------  ---------------
     2      0.424258  1 O  s                  3      0.275155  1 O  s          
    16      0.244749  2 H  s                 21      0.244749  3 H  s          
     6     -0.113569  1 O  pz                18      0.036931  2 H  px         
    23     -0.036931  3 H  px                 9      0.034459  1 O  pz         
    20      0.026275  2 H  pz                25      0.026275  3 H  pz         

 Vector    3  Occ=2.000000D+00  E=-7.373728D-01  Symmetry=b1
              MO Center= -2.8D-17,  1.9D-20, -8.7D-02, r^2= 6.7D-01
   Bfn.  Coefficient  Atom+Function         Bfn.  Coefficient  Atom+Function  
  ----- ------------  ---------------      ----- ------------  ---------------
     4      0.512916  1 O  px                16     -0.344111  2 H  s          
    21      0.344111  3 H  s                  7      0.208955  1 O  px         
    17     -0.078990  2 H  s                 22      0.078990  3 H  s          
    12     -0.059090  1 O  dxz               20     -0.034297  2 H  pz         
    25      0.034297  3 H  pz                18     -0.018870  2 H  px         

 Vector    4  Occ=2.000000D+00  E=-6.081810D-01  Symmetry=a1
              MO Center= -1.2D-17, -7.2D-35,  2.3D-01, r^2= 6.0D-01
   Bfn.  Coefficient  Atom+Function         Bfn.  Coefficient  Atom+Function  
  ----- ------------  ---------------      ----- ------------  ---------------
     6      0.545073  1 O  pz                 3      0.427294  1 O  s          
     9      0.326313  1 O  pz                16     -0.216083  2 H  s          
    21     -0.216083  3 H  s                  2      0.175289  1 O  s          
    18     -0.029210  2 H  px                23      0.029210  3 H  px         
    15     -0.028645  1 O  dzz               17     -0.019427  2 H  s          

 Vector    5  Occ=2.000000D+00  E=-5.061010D-01  Symmetry=b2
              MO Center= -4.2D-17, -3.1D-16,  9.3D-02, r^2= 5.9D-01
   Bfn.  Coefficient  Atom+Function         Bfn.  Coefficient  Atom+Function  
  ----- ------------  ---------------      ----- ------------  ---------------
     5      0.629094  1 O  py                 8      0.486537  1 O  py         
    14     -0.036323  1 O  dyz               19      0.036418  2 H  py         
    24      0.036418  3 H  py         

 Vector    6  Occ=0.000000D+00  E= 1.956086D-01  Symmetry=a1
              MO Center= -4.2D-17,  1.1D-17, -6.8D-01, r^2= 2.9D+00
   Bfn.  Coefficient  Atom+Function         Bfn.  Coefficient  Atom+Function  
  ----- ------------  ---------------      ----- ------------  ---------------
     3      1.124243  1 O  s                 17     -0.863038  2 H  s          
    22     -0.863038  3 H  s                  9     -0.300559  1 O  pz         
     6     -0.159922  1 O  pz                 2      0.077558  1 O  s          
     1     -0.054168  1 O  s                 13     -0.043990  1 O  dyy        
    16     -0.028413  2 H  s                 21     -0.028413  3 H  s          

 Vector    7  Occ=0.000000D+00  E= 2.716528D-01  Symmetry=b1
              MO Center= -3.6D-16, -6.9D-34, -6.4D-01, r^2= 3.6D+00
   Bfn.  Coefficient  Atom+Function         Bfn.  Coefficient  Atom+Function  
  ----- ------------  ---------------      ----- ------------  ---------------
    17      1.741135  2 H  s                 22     -1.741135  3 H  s          
     7      0.658382  1 O  px                 4      0.257059  1 O  px         
    12     -0.048319  1 O  dxz               20      0.026536  2 H  pz         
    25     -0.026536  3 H  pz                18      0.025960  2 H  px         
    23      0.025960  3 H  px         

 Vector    8  Occ=0.000000D+00  E= 8.426066D-01  Symmetry=b1
              MO Center=  9.2D-17,  7.2D-33, -1.6D-01, r^2= 1.4D+00
   Bfn.  Coefficient  Atom+Function         Bfn.  Coefficient  Atom+Function  
  ----- ------------  ---------------      ----- ------------  ---------------
    16      0.968566  2 H  s                 21     -0.968566  3 H  s          
     7      0.705390  1 O  px                17     -0.514279  2 H  s          
    22      0.514279  3 H  s                 12      0.196591  1 O  dxz        
     4      0.189634  1 O  px                20     -0.154269  2 H  pz         
    25      0.154269  3 H  pz                18     -0.119619  2 H  px         

 Vector    9  Occ=0.000000D+00  E= 1.007098D+00  Symmetry=a1
              MO Center= -1.0D-16, -1.9D-17, -3.2D-01, r^2= 1.5D+00
   Bfn.  Coefficient  Atom+Function         Bfn.  Coefficient  Atom+Function  
  ----- ------------  ---------------      ----- ------------  ---------------
     3      0.674415  1 O  s                  6      0.521282  1 O  pz         
     9     -0.520952  1 O  pz                17     -0.502405  2 H  s          
    22     -0.502405  3 H  s                 16      0.408472  2 H  s          
    21      0.408472  3 H  s                 18     -0.379519  2 H  px         
    23      0.379519  3 H  px                 2     -0.195203  1 O  s          

 Vector   10  Occ=0.000000D+00  E= 1.173097D+00  Symmetry=a1
              MO Center= -2.8D-17, -2.9D-17,  2.5D-01, r^2= 1.3D+00
   Bfn.  Coefficient  Atom+Function         Bfn.  Coefficient  Atom+Function  
  ----- ------------  ---------------      ----- ------------  ---------------
     9      1.416986  1 O  pz                16      0.935150  2 H  s          
    21      0.935150  3 H  s                  6     -0.540879  1 O  pz         
     3     -0.524472  1 O  s                  2     -0.323271  1 O  s          
    13     -0.118495  1 O  dyy               17     -0.091778  2 H  s          
    22     -0.091778  3 H  s                  1     -0.089041  1 O  s          

 Vector   11  Occ=0.000000D+00  E= 1.187774D+00  Symmetry=b2
              MO Center=  3.5D-18,  7.9D-20,  1.8D-01, r^2= 1.1D+00
   Bfn.  Coefficient  Atom+Function         Bfn.  Coefficient  Atom+Function  
  ----- ------------  ---------------      ----- ------------  ---------------
     8      1.124680  1 O  py                 5     -0.938147  1 O  py         
    19     -0.116557  2 H  py                24     -0.116557  3 H  py         

 Vector   12  Occ=0.000000D+00  E= 1.261090D+00  Symmetry=b1
              MO Center=  1.6D-16,  6.1D-21,  6.4D-02, r^2= 1.8D+00
   Bfn.  Coefficient  Atom+Function         Bfn.  Coefficient  Atom+Function  
  ----- ------------  ---------------      ----- ------------  ---------------
     7      1.789912  1 O  px                17      1.062630  2 H  s          
    22     -1.062630  3 H  s                  4     -0.716995  1 O  px         
    16      0.372680  2 H  s                 21     -0.372680  3 H  s          
    20      0.283450  2 H  pz                25     -0.283450  3 H  pz         
    18      0.238361  2 H  px                23      0.238361  3 H  px         

 Vector   13  Occ=0.000000D+00  E= 1.348790D+00  Symmetry=a1
              MO Center=  9.4D-17, -6.2D-18, -2.5D-01, r^2= 1.1D+00
   Bfn.  Coefficient  Atom+Function         Bfn.  Coefficient  Atom+Function  
  ----- ------------  ---------------      ----- ------------  ---------------
    20     -0.559820  2 H  pz                25     -0.559820  3 H  pz         
     3      0.556311  1 O  s                  9      0.501520  1 O  pz         
    18      0.342946  2 H  px                23     -0.342946  3 H  px         
     2     -0.311946  1 O  s                 16      0.213182  2 H  s          
    21      0.213182  3 H  s                 17     -0.199724  2 H  s          

 Vector   14  Occ=0.000000D+00  E= 1.550782D+00  Symmetry=a2
              MO Center=  6.0D-18, -2.9D-20, -4.1D-01, r^2= 9.0D-01
   Bfn.  Coefficient  Atom+Function         Bfn.  Coefficient  Atom+Function  
  ----- ------------  ---------------      ----- ------------  ---------------
    19      0.715066  2 H  py                24     -0.715066  3 H  py         
    11     -0.207409  1 O  dxy        

 Vector   15  Occ=0.000000D+00  E= 1.642377D+00  Symmetry=b2
              MO Center= -1.8D-34, -4.9D-18, -3.1D-01, r^2= 9.8D-01
   Bfn.  Coefficient  Atom+Function         Bfn.  Coefficient  Atom+Function  
  ----- ------------  ---------------      ----- ------------  ---------------
    19      0.766865  2 H  py                24      0.766865  3 H  py         
     8     -0.527393  1 O  py                 5     -0.258779  1 O  py         
    14     -0.235798  1 O  dyz        


 center of mass
 --------------
 x =   0.00000000 y =   0.00000000 z =   0.11186037

 moments of inertia (a.u.)
 ------------------
           2.117400384258           0.000000000000           0.000000000000
           0.000000000000           4.931357602976           0.000000000000
           0.000000000000           0.000000000000           2.813957218719

  Mulliken analysis of the total density
  --------------------------------------

    Atom       Charge   Shell Charges
 -----------   ------   -------------------------------------------------------
    1 O    8     8.16   2.00  0.82  0.71  2.92  1.67  0.03
    2 H    1     0.92   0.78  0.04  0.10
    3 H    1     0.92   0.78  0.04  0.10

       Multipole analysis of the density wrt the origin
       ------------------------------------------------

     L   x y z        total         open         nuclear
     -   - - -        -----         ----         -------
     0   0 0 0     -0.000000      0.000000     10.000000

     1   1 0 0     -0.000000      0.000000      0.000000
     1   0 1 0      0.000000      0.000000      0.000000
     1   0 0 1     -0.817035      0.000000      0.160596

     2   2 0 0     -3.480523      0.000000      2.792109
     2   1 1 0     -0.000000      0.000000      0.000000
     2   1 0 1     -0.000000      0.000000      0.000000
     2   0 2 0     -5.042415      0.000000      0.000000
     2   0 1 1      0.000000      0.000000      0.000000
     2   0 0 2     -4.198578      0.000000      1.895155


 Parallel integral file used       1 records with       0 large values

                              NWChem Gradients Module
                              -----------------------


                                        h2o


  wavefunction    =   RHF     

  Using symmetry


                         RHF ENERGY GRADIENTS

    atom               coordinates                        gradient
                 x          y          z           x          y          z
   1 o       0.000000   0.000000   0.233578    0.000000   0.000000  -0.180558
   2 h      -1.181547   0.000000  -0.854015    0.142343   0.000000   0.090279
   3 h       1.181547   0.000000  -0.854015   -0.142343   0.000000   0.090279

                 ----------------------------------------
                 |  Time  |  1-e(secs)   |  2-e(secs)   |
                 ----------------------------------------
                 |  CPU   |       0.00   |       0.08   |
                 ----------------------------------------
                 |  WALL  |       0.00   |       0.08   |
                 ----------------------------------------

  Step       Energy      Delta E   Gmax     Grms     Xrms     Xmax   Walltime
  ---- ---------------- -------- -------- -------- -------- -------- --------
@    1     -75.99638005 -2.5D-02  0.16587  0.13623  0.31680  0.67087      0.4
                                                                    



                                Z-matrix (autoz)
                                -------- 

 Units are Angstrom for bonds and degrees for angles

      Type          Name      I     J     K     L     M      Value     Gradient
      ----------- --------  ----- ----- ----- ----- ----- ---------- ----------
    1 Stretch                  1     2                       0.84981   -0.16587
    2 Stretch                  1     3                       0.84981   -0.16587
    3 Bend                     2     1     3                94.74196   -0.02548

 Restricting large step in mode    1 eval= 4.4D-02 step= 3.5D-01 new= 3.0D-01
 Restricting large step in mode    3 eval= 5.3D-01 step= 4.4D-01 new= 3.0D-01
 Restricting overall step due to large component. alpha=  0.96
                                 NWChem SCF Module
                                 -----------------


                                        h2o



  ao basis        = "ao basis"
  functions       =    25
  atoms           =     3
  closed shells   =     5
  open shells     =     0
  charge          =   0.00
  wavefunction    = RHF 
  input vectors   = ./prop_h2o_run.movecs
  output vectors  = ./prop_h2o_run.movecs
  use symmetry    = T
  symmetry adapt  = T


 Summary of "ao basis" -> "ao basis" (cartesian)
 ------------------------------------------------------------------------------
       Tag                 Description            Shells   Functions and Types
 ---------------- ------------------------------  ------  ---------------------
 o                          cc-pvdz                  6       15   3s2p1d
 h                          cc-pvdz                  3        5   2s1p


      Symmetry analysis of basis
      --------------------------

        a1         12
        a2          2
        b1          7
        b2          4


 Forming initial guess at       0.4s


 Loading old vectors from job with title :

h2o


      Symmetry analysis of molecular orbitals - initial
      -------------------------------------------------

  Numbering of irreducible representations: 

     1 a1          2 a2          3 b1          4 b2      

  Orbital symmetries:

     1 a1          2 a1          3 b1          4 a1          5 b2      
     6 a1          7 b1          8 b1          9 a1         10 a1      
    11 b2         12 b1         13 a1         14 a2         15 b2      


 Starting SCF solution at       0.4s



 ----------------------------------------------
         Quadratically convergent ROHF

 Convergence threshold     :          1.000E-04
 Maximum no. of iterations :           30
 Final Fock-matrix accuracy:          1.000E-07
 ----------------------------------------------


 #quartets = 1.953D+03 #integrals = 1.805D+04 #direct =  0.0% #cached =100.0%


 Integral file          = ./prop_h2o_run.aoints.0
 Record size in doubles =    65536    No. of integs per rec  =    43688
 Max. records in memory =        2    Max. records in file   =  1513518
 No. of bits per label  =        8    No. of bits per value  =       64


              iter       energy          gnorm     gmax       time
             ----- ------------------- --------- --------- --------
                 1      -76.0171094512  4.01D-01  2.31D-01      0.4
                 2      -76.0267385545  9.34D-02  5.08D-02      0.4
                 3      -76.0272950844  5.04D-03  3.15D-03      0.4
                 4      -76.0272993379  1.87D-05  1.06D-05      0.4


       Final RHF  results 
       ------------------ 

         Total SCF energy =    -76.027299337926
      One-electron energy =   -123.223754337530
      Two-electron energy =     37.956744660057
 Nuclear repulsion energy =      9.239710339546

        Time for solution =      0.0s



       Symmetry analysis of molecular orbitals - final
       -----------------------------------------------

  Numbering of irreducible representations: 

     1 a1          2 a2          3 b1          4 b2      

  Orbital symmetries:

     1 a1          2 a1          3 b1          4 a1          5 b2      
     6 a1          7 b1          8 b1          9 a1         10 a1      
    11 b2         12 b1         13 a1         14 a2         15 b2      

             Final eigenvalues
             -----------------

              1      
    1  -20.5514
    2   -1.3398
    3   -0.7007
    4   -0.5691
    5   -0.4941
    6    0.1840
    7    0.2569
    8    0.7901
    9    0.8616
   10    1.1590
   11    1.1999
   12    1.2535
   13    1.4180
   14    1.4796
   15    1.6716

                       ROHF Final Molecular Orbital Analysis
                       -------------------------------------

 Vector    2  Occ=2.000000D+00  E=-1.339818D+00  Symmetry=a1
              MO Center=  3.7D-18,  6.9D-18, -4.2D-02, r^2= 5.0D-01
   Bfn.  Coefficient  Atom+Function         Bfn.  Coefficient  Atom+Function  
  ----- ------------  ---------------      ----- ------------  ---------------
     2      0.440494  1 O  s                  3      0.365518  1 O  s          
    16      0.195870  2 H  s                 21      0.195870  3 H  s          
     6     -0.080579  1 O  pz                18      0.036995  2 H  px         
    23     -0.036995  3 H  px                20      0.020429  2 H  pz         
    25      0.020429  3 H  pz         

 Vector    3  Occ=2.000000D+00  E=-7.007269D-01  Symmetry=b1
              MO Center= -1.7D-17,  5.3D-21, -9.2D-02, r^2= 7.6D-01
   Bfn.  Coefficient  Atom+Function         Bfn.  Coefficient  Atom+Function  
  ----- ------------  ---------------      ----- ------------  ---------------
     4      0.491121  1 O  px                16     -0.328463  2 H  s          
    21      0.328463  3 H  s                  7      0.221652  1 O  px         
    17     -0.089418  2 H  s                 22      0.089418  3 H  s          
    12     -0.046931  1 O  dxz               20     -0.032848  2 H  pz         
    25      0.032848  3 H  pz                18     -0.023009  2 H  px         

 Vector    4  Occ=2.000000D+00  E=-5.691112D-01  Symmetry=a1
              MO Center= -2.5D-18, -8.5D-19,  1.8D-01, r^2= 6.7D-01
   Bfn.  Coefficient  Atom+Function         Bfn.  Coefficient  Atom+Function  
  ----- ------------  ---------------      ----- ------------  ---------------
     6      0.545607  1 O  pz                 3      0.368429  1 O  s          
     9      0.361696  1 O  pz                16     -0.207658  2 H  s          
    21     -0.207658  3 H  s                  2      0.154697  1 O  s          
    17     -0.041843  2 H  s                 22     -0.041843  3 H  s          
    18     -0.030908  2 H  px                23      0.030908  3 H  px         

 Vector    5  Occ=2.000000D+00  E=-4.940877D-01  Symmetry=b2
              MO Center= -3.8D-17, -3.3D-16,  1.1D-01, r^2= 6.0D-01
   Bfn.  Coefficient  Atom+Function         Bfn.  Coefficient  Atom+Function  
  ----- ------------  ---------------      ----- ------------  ---------------
     5      0.631221  1 O  py                 8      0.495187  1 O  py         
    14     -0.031725  1 O  dyz               19      0.031291  2 H  py         
    24      0.031291  3 H  py         

 Vector    6  Occ=0.000000D+00  E= 1.839956D-01  Symmetry=a1
              MO Center=  9.6D-17, -9.1D-18, -6.1D-01, r^2= 3.0D+00
   Bfn.  Coefficient  Atom+Function         Bfn.  Coefficient  Atom+Function  
  ----- ------------  ---------------      ----- ------------  ---------------
     3      1.070370  1 O  s                 17     -0.839255  2 H  s          
    22     -0.839255  3 H  s                  9     -0.340704  1 O  pz         
     6     -0.188140  1 O  pz                 2      0.080156  1 O  s          
    16     -0.058140  2 H  s                 21     -0.058140  3 H  s          
     1     -0.056586  1 O  s                 13     -0.041237  1 O  dyy        

 Vector    7  Occ=0.000000D+00  E= 2.568601D-01  Symmetry=b1
              MO Center=  1.5D-16, -6.0D-34, -6.1D-01, r^2= 3.6D+00
   Bfn.  Coefficient  Atom+Function         Bfn.  Coefficient  Atom+Function  
  ----- ------------  ---------------      ----- ------------  ---------------
    17      1.456470  2 H  s                 22     -1.456470  3 H  s          
     7      0.670308  1 O  px                 4      0.282209  1 O  px         
    12     -0.037285  1 O  dxz               16      0.025664  2 H  s          
    21     -0.025664  3 H  s                 18      0.021039  2 H  px         
    23      0.021039  3 H  px                20      0.017541  2 H  pz         

 Vector    8  Occ=0.000000D+00  E= 7.900770D-01  Symmetry=b1
              MO Center=  3.6D-16,  8.2D-20, -2.3D-01, r^2= 1.6D+00
   Bfn.  Coefficient  Atom+Function         Bfn.  Coefficient  Atom+Function  
  ----- ------------  ---------------      ----- ------------  ---------------
    16      0.945298  2 H  s                 21     -0.945298  3 H  s          
    17     -0.681845  2 H  s                 22      0.681845  3 H  s          
     7      0.470372  1 O  px                 4      0.264225  1 O  px         
    12      0.194179  1 O  dxz               20     -0.152520  2 H  pz         
    25      0.152520  3 H  pz                18     -0.075262  2 H  px         

 Vector    9  Occ=0.000000D+00  E= 8.616457D-01  Symmetry=a1
              MO Center= -2.2D-16,  3.5D-18, -4.6D-01, r^2= 1.6D+00
   Bfn.  Coefficient  Atom+Function         Bfn.  Coefficient  Atom+Function  
  ----- ------------  ---------------      ----- ------------  ---------------
    16      0.778168  2 H  s                 21      0.778168  3 H  s          
    17     -0.545386  2 H  s                 22     -0.545386  3 H  s          
     6      0.336044  1 O  pz                 3      0.328290  1 O  s          
    18     -0.301394  2 H  px                23      0.301394  3 H  px         
     2     -0.256490  1 O  s                 13     -0.093416  1 O  dyy        

 Vector   10  Occ=0.000000D+00  E= 1.159036D+00  Symmetry=a1
              MO Center= -4.3D-18,  4.9D-18,  2.1D-01, r^2= 1.2D+00
   Bfn.  Coefficient  Atom+Function         Bfn.  Coefficient  Atom+Function  
  ----- ------------  ---------------      ----- ------------  ---------------
     9      1.274568  1 O  pz                 6     -0.743499  1 O  pz         
     3     -0.568253  1 O  s                 16      0.551328  2 H  s          
    21      0.551328  3 H  s                 20      0.242333  2 H  pz         
    25      0.242333  3 H  pz                 2     -0.154641  1 O  s          
    18      0.090876  2 H  px                23     -0.090876  3 H  px         

 Vector   11  Occ=0.000000D+00  E= 1.199889D+00  Symmetry=b2
              MO Center=  8.3D-18,  8.7D-18,  1.3D-01, r^2= 1.1D+00
   Bfn.  Coefficient  Atom+Function         Bfn.  Coefficient  Atom+Function  
  ----- ------------  ---------------      ----- ------------  ---------------
     8     -1.029077  1 O  py                 5      0.967589  1 O  py         

 Vector   12  Occ=0.000000D+00  E= 1.253475D+00  Symmetry=b1
              MO Center=  2.0D-17,  2.7D-33,  1.4D-01, r^2= 1.7D+00
   Bfn.  Coefficient  Atom+Function         Bfn.  Coefficient  Atom+Function  
  ----- ------------  ---------------      ----- ------------  ---------------
     7      1.766347  1 O  px                17      0.835332  2 H  s          
    22     -0.835332  3 H  s                  4     -0.734440  1 O  px         
    16      0.378785  2 H  s                 21     -0.378785  3 H  s          
    18      0.298108  2 H  px                23      0.298108  3 H  px         
    20      0.193232  2 H  pz                25     -0.193232  3 H  pz         

 Vector   13  Occ=0.000000D+00  E= 1.418008D+00  Symmetry=a1
              MO Center= -1.5D-16,  5.6D-17, -6.9D-02, r^2= 1.4D+00
   Bfn.  Coefficient  Atom+Function         Bfn.  Coefficient  Atom+Function  
  ----- ------------  ---------------      ----- ------------  ---------------
     3      1.015125  1 O  s                  2     -0.614581  1 O  s          
     9      0.563642  1 O  pz                20     -0.519476  2 H  pz         
    25     -0.519476  3 H  pz                18      0.313022  2 H  px         
    23     -0.313022  3 H  px                 1     -0.274958  1 O  s          
    17     -0.269183  2 H  s                 22     -0.269183  3 H  s          

 Vector   14  Occ=0.000000D+00  E= 1.479564D+00  Symmetry=a2
              MO Center= -4.8D-17, -1.5D-20, -4.1D-01, r^2= 1.0D+00
   Bfn.  Coefficient  Atom+Function         Bfn.  Coefficient  Atom+Function  
  ----- ------------  ---------------      ----- ------------  ---------------
    19      0.686592  2 H  py                24     -0.686592  3 H  py         
    11     -0.226663  1 O  dxy        

 Vector   15  Occ=0.000000D+00  E= 1.671561D+00  Symmetry=b2
              MO Center=  3.1D-35,  1.8D-18, -2.8D-01, r^2= 1.2D+00
   Bfn.  Coefficient  Atom+Function         Bfn.  Coefficient  Atom+Function  
  ----- ------------  ---------------      ----- ------------  ---------------
    19      0.767100  2 H  py                24      0.767100  3 H  py         
     8     -0.630080  1 O  py                14     -0.277631  1 O  dyz        
     5     -0.029217  1 O  py         


 center of mass
 --------------
 x =   0.00000000 y =   0.00000000 z =   0.12453773

 moments of inertia (a.u.)
 ------------------
           2.207315983191           0.000000000000           0.000000000000
           0.000000000000           6.255476304068           0.000000000000
           0.000000000000           0.000000000000           4.048160320877

  Mulliken analysis of the total density
  --------------------------------------

    Atom       Charge   Shell Charges
 -----------   ------   -------------------------------------------------------
    1 O    8     8.30   2.00  0.83  0.81  2.83  1.81  0.02
    2 H    1     0.85   0.69  0.07  0.09
    3 H    1     0.85   0.69  0.07  0.09

       Multipole analysis of the density wrt the origin
       ------------------------------------------------

     L   x y z        total         open         nuclear
     -   - - -        -----         ----         -------
     0   0 0 0     -0.000000      0.000000     10.000000

     1   1 0 0      0.000000      0.000000      0.000000
     1   0 1 0      0.000000      0.000000      0.000000
     1   0 0 1     -0.811437      0.000000      0.267240

     2   2 0 0     -3.100273      0.000000      4.016729
     2   1 1 0     -0.000000      0.000000      0.000000
     2   1 0 1      0.000000      0.000000      0.000000
     2   0 2 0     -5.221224      0.000000      0.000000
     2   0 1 1      0.000000      0.000000      0.000000
     2   0 0 2     -4.411146      0.000000      1.980086


 Parallel integral file used       1 records with       0 large values

 Line search: 
     step= 0.96 grad=-7.5D-02 hess= 4.5D-02 energy=    -76.027299 mode=downhill
 new step= 0.84                   predicted energy=    -76.027946

          --------
          Step   2
          --------


                         Geometry "geometry" -> "geometry"
                         ---------------------------------

 Output coordinates in a.u. (scale by  1.000000000 to convert to a.u.)

  No.       Tag          Charge          X              Y              Z
 ---- ---------------- ---------- -------------- -------------- --------------
    1 o                    8.0000     0.00000000     0.00000000     0.24802593
    2 h                    1.0000    -1.38704233     0.00000000    -0.86123910
    3 h                    1.0000     1.38704233     0.00000000    -0.86123910

      Atomic Mass 
      ----------- 

      o                 15.994910
      h                  1.007825


 Effective nuclear repulsion energy (a.u.)       9.3692321751

            Nuclear Dipole moment (a.u.) 
            ----------------------------
        X                 Y               Z
 ---------------- ---------------- ----------------
     0.0000000000     0.0000000000     0.2617292289

      Symmetry information
      --------------------

 Group name             C2v       
 Group number             16
 Group order               4
 No. of unique centers     2

      Symmetry unique atoms

     1    2

                                 NWChem SCF Module
                                 -----------------


                                        h2o



  ao basis        = "ao basis"
  functions       =    25
  atoms           =     3
  closed shells   =     5
  open shells     =     0
  charge          =   0.00
  wavefunction    = RHF 
  input vectors   = ./prop_h2o_run.movecs
  output vectors  = ./prop_h2o_run.movecs
  use symmetry    = T
  symmetry adapt  = T


 Summary of "ao basis" -> "ao basis" (cartesian)
 ------------------------------------------------------------------------------
       Tag                 Description            Shells   Functions and Types
 ---------------- ------------------------------  ------  ---------------------
 o                          cc-pvdz                  6       15   3s2p1d
 h                          cc-pvdz                  3        5   2s1p


      Symmetry analysis of basis
      --------------------------

        a1         12
        a2          2
        b1          7
        b2          4


 Forming initial guess at       0.5s


 Loading old vectors from job with title :

h2o


      Symmetry analysis of molecular orbitals - initial
      -------------------------------------------------

  Numbering of irreducible representations: 

     1 a1          2 a2          3 b1          4 b2      

  Orbital symmetries:

     1 a1          2 a1          3 b1          4 a1          5 b2      
     6 a1          7 b1          8 b1          9 a1         10 a1      
    11 b2         12 b1         13 a1         14 a2         15 b2      


 Starting SCF solution at       0.5s



 ----------------------------------------------
         Quadratically convergent ROHF

 Convergence threshold     :          1.000E-04
 Maximum no. of iterations :           30
 Final Fock-matrix accuracy:          1.000E-07
 ----------------------------------------------


 #quartets = 1.953D+03 #integrals = 1.805D+04 #direct =  0.0% #cached =100.0%


 Integral file          = ./prop_h2o_run.aoints.0
 Record size in doubles =    65536    No. of integs per rec  =    43688
 Max. records in memory =        2    Max. records in file   =  1513516
 No. of bits per label  =        8    No. of bits per value  =       64


              iter       energy          gnorm     gmax       time
             ----- ------------------- --------- --------- --------
                 1      -76.0270453963  4.61D-02  1.97D-02      0.4
                 2      -76.0271783718  6.29D-04  3.92D-04      0.4
                 3      -76.0271784347  2.21D-06  9.59D-07      0.4


       Final RHF  results 
       ------------------ 

         Total SCF energy =    -76.027178434660
      One-electron energy =   -123.448865629315
      Two-electron energy =     38.052455019563
 Nuclear repulsion energy =      9.369232175092

        Time for solution =      0.0s



       Symmetry analysis of molecular orbitals - final
       -----------------------------------------------

  Numbering of irreducible representations: 

     1 a1          2 a2          3 b1          4 b2      

  Orbital symmetries:

     1 a1          2 a1          3 b1          4 a1          5 b2      
     6 a1          7 b1          8 b1          9 a1         10 a1      
    11 b2         12 b1         13 a1         14 a2         15 b2      

             Final eigenvalues
             -----------------

              1      
    1  -20.5497
    2   -1.3475
    3   -0.7054
    4   -0.5739
    5   -0.4955
    6    0.1858
    7    0.2589
    8    0.7957
    9    0.8795
   10    1.1589
   11    1.1995
   12    1.2540
   13    1.4081
   14    1.4871
   15    1.6675

                       ROHF Final Molecular Orbital Analysis
                       -------------------------------------

 Vector    2  Occ=2.000000D+00  E=-1.347534D+00  Symmetry=a1
              MO Center=  3.2D-18,  1.9D-35, -4.8D-02, r^2= 5.0D-01
   Bfn.  Coefficient  Atom+Function         Bfn.  Coefficient  Atom+Function  
  ----- ------------  ---------------      ----- ------------  ---------------
     2      0.438761  1 O  s                  3      0.355108  1 O  s          
    16      0.201851  2 H  s                 21      0.201851  3 H  s          
     6     -0.084158  1 O  pz                18      0.037401  2 H  px         
    23     -0.037401  3 H  px                20      0.021183  2 H  pz         
    25      0.021183  3 H  pz                 9      0.016960  1 O  pz         

 Vector    3  Occ=2.000000D+00  E=-7.054302D-01  Symmetry=b1
              MO Center= -4.2D-17,  5.4D-21, -9.1D-02, r^2= 7.5D-01
   Bfn.  Coefficient  Atom+Function         Bfn.  Coefficient  Atom+Function  
  ----- ------------  ---------------      ----- ------------  ---------------
     4      0.493583  1 O  px                16     -0.330418  2 H  s          
    21      0.330418  3 H  s                  7      0.219846  1 O  px         
    17     -0.087889  2 H  s                 22      0.087889  3 H  s          
    12     -0.048213  1 O  dxz               20     -0.033220  2 H  pz         
    25      0.033220  3 H  pz                18     -0.022448  2 H  px         

 Vector    4  Occ=2.000000D+00  E=-5.738774D-01  Symmetry=a1
              MO Center= -1.4D-17, -7.7D-19,  1.9D-01, r^2= 6.6D-01
   Bfn.  Coefficient  Atom+Function         Bfn.  Coefficient  Atom+Function  
  ----- ------------  ---------------      ----- ------------  ---------------
     6      0.545486  1 O  pz                 3      0.375924  1 O  s          
     9      0.357255  1 O  pz                16     -0.209184  2 H  s          
    21     -0.209184  3 H  s                  2      0.157181  1 O  s          
    17     -0.038996  2 H  s                 22     -0.038996  3 H  s          
    18     -0.031069  2 H  px                23      0.031069  3 H  px         

 Vector    5  Occ=2.000000D+00  E=-4.954530D-01  Symmetry=b2
              MO Center= -3.9D-17, -3.2D-16,  1.1D-01, r^2= 6.0D-01
   Bfn.  Coefficient  Atom+Function         Bfn.  Coefficient  Atom+Function  
  ----- ------------  ---------------      ----- ------------  ---------------
[...]
      XZ           -0.0000000000          0.0000000000         -0.0000000000
      YZ           -0.0000000000          0.0000000000         -0.0000000000

   Second moments in buckingham(s)

   Component  Electronic+nuclear     Point charges             Total
  --------------------------------------------------------------------------
      XX           -4.3788081021          0.0000000000         -4.3788081021
      YY           -7.0742021525          0.0000000000         -7.0742021525
      ZZ           -5.9267408528          0.0000000000         -5.9267408528
      XY            0.0000000000          0.0000000000          0.0000000000
      XZ           -0.0000000000          0.0000000000         -0.0000000000
      YZ           -0.0000000000          0.0000000000         -0.0000000000

   Quadrupole moments in atomic units

   Component  Electronic+nuclear     Point charges             Total
  --------------------------------------------------------------------------
      XX            1.5775492954          0.0000000000          1.5775492954
      YY           -1.4286652983          0.0000000000         -1.4286652983
      ZZ           -0.1488839971          0.0000000000         -0.1488839971
      XY            0.0000000000          0.0000000000          0.0000000000
      XZ           -0.0000000000          0.0000000000         -0.0000000000
      YZ           -0.0000000000          0.0000000000         -0.0000000000

   Quadrupole moments in buckingham(s)

   Component  Electronic+nuclear     Point charges             Total
  --------------------------------------------------------------------------
      XX            2.1216634005          0.0000000000          2.1216634005
      YY           -1.9214276750          0.0000000000         -1.9214276750
      ZZ           -0.2002357254          0.0000000000         -0.2002357254
      XY            0.0000000000          0.0000000000          0.0000000000
      XZ           -0.0000000000          0.0000000000         -0.0000000000
      YZ           -0.0000000000          0.0000000000         -0.0000000000

 1 a.u. = 1.344911 Buckinghams = 1.344911 10**(-26) esu*cm**2 

          ---------------
          Octupole Moment
          ---------------

 Center of charge (in au) is the expansion point
         X =       0.0000000 Y =       0.0000000 Z =       0.0494054

   Third moments in atomic units

   Component  Electronic+nuclear     Point charges             Total
  --------------------------------------------------------------------------
      XXX           0.0000000000          0.0000000000          0.0000000000
      YYY           0.0000000000          0.0000000000          0.0000000000
      ZZZ          -1.4388185298          0.0000000000         -1.4388185298
      XXY          -0.0000000000          0.0000000000         -0.0000000000
      XXZ          -1.6133544858          0.0000000000         -1.6133544858
      YYX           0.0000000000          0.0000000000          0.0000000000
      YYZ          -0.3447423197          0.0000000000         -0.3447423197
      ZZX           0.0000000000          0.0000000000          0.0000000000
      ZZY          -0.0000000000          0.0000000000         -0.0000000000
      XYZ           0.0000000000          0.0000000000          0.0000000000

   Third moments in 10**(-34) esu*cm**3

   Component  Electronic+nuclear     Point charges             Total
  --------------------------------------------------------------------------
      XXX           0.0000000000          0.0000000000          0.0000000000
      YYY           0.0000000000          0.0000000000          0.0000000000
      ZZZ          -1.0239898818          0.0000000000         -1.0239898818
      XXY          -0.0000000000          0.0000000000         -0.0000000000
      XXZ          -1.1482050273          0.0000000000         -1.1482050273
      YYX           0.0000000000          0.0000000000          0.0000000000
      YYZ          -0.2453489720          0.0000000000         -0.2453489720
      ZZX           0.0000000000          0.0000000000          0.0000000000
      ZZY          -0.0000000000          0.0000000000         -0.0000000000
      XYZ           0.0000000000          0.0000000000          0.0000000000

   Octupole moments in atomic units

   Component  Electronic+nuclear     Point charges             Total
  --------------------------------------------------------------------------
      XXX          -0.0000000000          0.0000000000         -0.0000000000
      YYY           0.0000000000          0.0000000000          0.0000000000
      ZZZ           1.4983266784          0.0000000000          1.4983266784
      XXY          -0.0000000000          0.0000000000         -0.0000000000
      XXZ          -2.3349285469          0.0000000000         -2.3349285469
      YYX          -0.0000000000          0.0000000000         -0.0000000000
      YYZ           0.8366018685          0.0000000000          0.8366018685
      ZZX           0.0000000000          0.0000000000          0.0000000000
      ZZY          -0.0000000000          0.0000000000         -0.0000000000
      XYZ           0.0000000000          0.0000000000          0.0000000000

   Octupole moments in 10**(-34) esu*cm**3

   Component  Electronic+nuclear     Point charges             Total
  --------------------------------------------------------------------------
      XXX          -0.0000000000          0.0000000000         -0.0000000000
      YYY           0.0000000000          0.0000000000          0.0000000000
      ZZZ           1.0663411171          0.0000000000          1.0663411171
      XXY          -0.0000000000          0.0000000000         -0.0000000000
      XXZ          -1.6617406277          0.0000000000         -1.6617406277
      YYX          -0.0000000000          0.0000000000         -0.0000000000
      YYZ           0.5953995106          0.0000000000          0.5953995106
      ZZX           0.0000000000          0.0000000000          0.0000000000
      ZZY          -0.0000000000          0.0000000000         -0.0000000000
      XYZ           0.0000000000          0.0000000000          0.0000000000

 1 a.u. = 0.711688 10**(-34) esu*cm**3 


          ----------------------------
          Mulliken population analysis
          ----------------------------

 Total      S,P,D,... shell population
 --------------------------------
    Atom          S        P        D
 --------------------------------------------------------------------------------------
     1 O      3.70293   4.61349  -0.01332
     2 H      0.76676   0.08169   0.00000
     3 H      0.76676   0.08169   0.00000

          ----- Total      gross population on atoms ----

              1  O    8.0     8.30310
              2  H    1.0     0.84845
              3  H    1.0     0.84845

          ----- Bond indices -----
  1- 1   0.00000  1- 2   1.02604  1- 3   1.02604
  2- 1   1.02604  2- 2   0.00000  2- 3   0.00670
  3- 1   1.02604  3- 2   0.00670  3- 3   0.00000

 Large bond indices
 ------------------
  1   O -  2   H    1.02604
  1   O -  3   H    1.02604

                                                                Free electrons             Valency
                              Number of         Sum of          + Bond indices         - Bond indices    
                Valency     Free electrons    Bond indices     =Mulliken charge     = Net spin population
     1  O       2.05207        6.25103          2.05207           8.30310                -0.00000
     2  H       1.03274       -0.18429          1.03274           0.84845                -0.00000
     3  H       1.03274       -0.18429          1.03274           0.84845                -0.00000

          ---------------------------------------------
          Electrostatic potential/diamagnetic shielding
          ---------------------------------------------

 1 a.u. = 9.07618 esu/cm ( or statvolts ) 
   Point      X         Y         Z     Total Potential(a.u.)   Diamagnetic shielding(a.u.)
    1 O    0.00000   0.00000   0.28122     -22.295124            23.378072
    2 H   -1.43782   0.00000  -0.87783      -0.989666             5.669207
    3 H    1.43782   0.00000  -0.87783      -0.989666             5.669207

          --------------
          Electric field
          --------------

 1 a.u. = 0.171524 10**(-8) dyn/esu 

   Atom       X         Y         Z                        Electric field (a.u.)
                                              X              Y              Z           Field
  ------------------------------------------------------------------------------------------------
    1 O    0.00000   0.00000   0.28122       0.000000       0.000000       0.095185       0.095185
    2 H   -1.43782   0.00000  -0.87783      -0.013011      -0.000000      -0.005345       0.014066
    3 H    1.43782   0.00000  -0.87783       0.013011      -0.000000      -0.005345       0.014066

          -----------------------
          Electric field gradient
          -----------------------

 1 a.u. = 0.324123 10**(16) esu/cm**3  ( or statvolts/cm**2 ) = 0.97174 10**(22) v/m**2 


 ------------------------------------------------------------
   Atom      X         Y         Z
 ------------------------------------------------------------
    1 O    0.00000   0.00000   0.28122
 ------------------------------------------------------------

 Electric field gradient in molecular frame (a.u.)
         XX             YY             ZZ             XY             XZ             YZ
 ------------------------------------------------------------------------------------------
       -1.553982       1.864067      -0.310085       0.000000      -0.000000      -0.000000

 Principal components (a.u.) and orientation 
 of principal axis w.r.t. absolute frame                      Asymmetry parameter eta
 --------------------------------------------------------------------------------------
        1.864067      -1.553982      -0.310085                       0.667303

        0.000000       1.000000      -0.000000
        1.000000       0.000000      -0.000000
       -0.000000      -0.000000       1.000000
  

 ------------------------------------------------------------
   Atom      X         Y         Z
 ------------------------------------------------------------
    2 H   -1.43782   0.00000  -0.87783
 ------------------------------------------------------------

 Electric field gradient in molecular frame (a.u.)
         XX             YY             ZZ             XY             XZ             YZ
 ------------------------------------------------------------------------------------------
       -0.202107       0.247580      -0.045473      -0.000000      -0.298222      -0.000000

 Principal components (a.u.) and orientation 
 of principal axis w.r.t. absolute frame                      Asymmetry parameter eta
 --------------------------------------------------------------------------------------
       -0.432124       0.247580       0.184544                       0.145875

        0.791834       0.000000      -0.610737
        0.000000       1.000000       0.000000
        0.610737       0.000000       0.791834
  

 ------------------------------------------------------------
   Atom      X         Y         Z
 ------------------------------------------------------------
    3 H    1.43782   0.00000  -0.87783
 ------------------------------------------------------------

 Electric field gradient in molecular frame (a.u.)
         XX             YY             ZZ             XY             XZ             YZ
 ------------------------------------------------------------------------------------------
       -0.202107       0.247580      -0.045473      -0.000000       0.298222       0.000000

 Principal components (a.u.) and orientation 
 of principal axis w.r.t. absolute frame                      Asymmetry parameter eta
 --------------------------------------------------------------------------------------
       -0.432124       0.247580       0.184544                       0.145875

        0.791834       0.000000       0.610737
        0.000000       1.000000       0.000000
       -0.610737       0.000000       0.791834
  

          ---------------------
          Electron/spin density
          ---------------------

 1 a.u. = 4.80286 10**(-10) esu 

 Total electron density 
 ---------------------- 
   Point      X         Y         Z      Density (a.u.)
    1 O    0.00000   0.00000   0.28122     295.246206
    2 H   -1.43782   0.00000  -0.87783       0.342781
    3 H    1.43782   0.00000  -0.87783       0.342781

          -----------------------------------------
          Chemical Shielding Tensors (GIAO, in ppm)
          -----------------------------------------

 Grid integrated density:      10.000000314551
 Requested integration accuracy:   0.10E-13
                                NWChem CPHF Module
                                ------------------


  scftype          =     RHF 
  nclosed          =        5
  nopen            =        0
  variables        =      100
  # of vectors     =        3
  tolerance        = 0.10D-03
  level shift      = 0.00D+00
  max iterations   =       50
  max subspace     =       30


 #quartets = 3.081D+03 #integrals = 2.937D+04 #direct =  0.0% #cached =100.0%


 Integral file          = ./prop_h2o_run.aoints.0
 Record size in doubles =    65536    No. of integs per rec  =    43688
 Max. records in memory =        3    Max. records in file   =  1513512
 No. of bits per label  =        8    No. of bits per value  =       64

 Grid integrated density:      10.000000314551
 Requested integration accuracy:   0.10E-13
 SCF residual:    1.2291781488706979E-006


Iterative solution of linear equations
  No. of variables      100
  No. of equations        3
  Maximum subspace       30
        Iterations       50
       Convergence  1.0D-04
        Start time      7.9


   iter   nsub   residual    time
   ----  ------  --------  ---------
     1      3    2.52D-07       8.1

 Parallel integral file used       1 records with       0 large values


 Wrote CPHF data to ./prop_h2o_run.shieldcphf

 Calc. par tensor-> nonrel
      Atom:    1  O 
        Diamagnetic
    394.7071     -0.0000      0.0000
     -0.0000    362.7478     -0.0000
      0.0000     -0.0000    381.0721

        Paramagnetic
    -41.3619      0.0000      0.0000
      0.0000    -38.2997     -0.0000
      0.0000     -0.0000    -38.6512

        Total Shielding Tensor
    353.3451      0.0000      0.0000
      0.0000    324.4481     -0.0000
      0.0000     -0.0000    342.4209

           isotropic =     340.0714
          anisotropy =      19.9107

          Principal Components and Axis System
                 1           2           3
              353.3451    342.4209    324.4481

      1         1.0000      0.0000      0.0000
      2         0.0000     -0.0000      1.0000
      3         0.0000      1.0000     -0.0000



      Atom:    2  H 
        Diamagnetic
     37.3644     -0.0000      7.0688
     -0.0000     23.2148     -0.0000
      7.0688     -0.0000     30.4429

        Paramagnetic
      0.6478      0.0000      0.4008
      0.0000      1.0191      0.0000
      0.4008      0.0000      0.3737

        Total Shielding Tensor
     38.0121     -0.0000      7.4695
     -0.0000     24.2339      0.0000
      7.4695      0.0000     30.8167

           isotropic =      31.0209
          anisotropy =      17.5265

          Principal Components and Axis System
                 1           2           3
               42.7052     26.1236     24.2339

      1         0.8467     -0.5320      0.0000
      2         0.0000      0.0000      1.0000
      3         0.5320      0.8467      0.0000



      Atom:    3  H 
        Diamagnetic
     37.3644      0.0000     -7.0688
      0.0000     23.2148     -0.0000
     -7.0688     -0.0000     30.4429

        Paramagnetic
      0.6478      0.0000     -0.4008
      0.0000      1.0191      0.0000
     -0.4008      0.0000      0.3737

        Total Shielding Tensor
     38.0121      0.0000     -7.4695
      0.0000     24.2339     -0.0000
     -7.4695     -0.0000     30.8167

           isotropic =      31.0209
          anisotropy =      17.5265

          Principal Components and Axis System
                 1           2           3
               42.7052     26.1236     24.2339

      1         0.8467      0.5320      0.0000
      2         0.0000      0.0000      1.0000
      3        -0.5320      0.8467      0.0000




 Task  times  cpu:        0.8s     wall:        0.9s


                                NWChem Input Module
                                -------------------


 Summary of allocated global arrays
-----------------------------------
  No active global arrays



                         GA Statistics for process    0
                         ------------------------------

       create   destroy   get      put      acc     scatter   gather  read&inc
calls: 5414     5414     3.49e+05 4.96e+04 1.50e+05  841        0     7764     
number of processes/call 1.00e+00 1.00e+00 1.00e+00 0.00e+00 0.00e+00
bytes total:             1.33e+08 2.48e+07 7.84e+07 5.00e+03 0.00e+00 6.21e+04
bytes remote:            0.00e+00 0.00e+00 0.00e+00 0.00e+00 0.00e+00 0.00e+00
Max memory consumed for GA by this process: 452800 bytes

MA_summarize_allocated_blocks: starting scan ...
MA_summarize_allocated_blocks: scan completed: 0 heap blocks, 0 stack blocks
MA usage statistics:

	allocation statistics:
					      heap	     stack
					      ----	     -----
	current number of blocks	         0	         0
	maximum number of blocks	        27	        53
	current total bytes		         0	         0
	maximum total bytes		   5716680	  68047992
	maximum total K-bytes		      5717	     68048
	maximum total M-bytes		         6	        69


                                     CITATION
                                     --------
                Please cite the following reference when publishing
                           results obtained with NWChem:

                 M. Valiev, E.J. Bylaska, N. Govind, K. Kowalski,
              T.P. Straatsma, H.J.J. van Dam, D. Wang, J. Nieplocha,
                        E. Apra, T.L. Windus, W.A. de Jong
                 "NWChem: a comprehensive and scalable open-source
                  solution for large scale molecular simulations"
                      Comput. Phys. Commun. 181, 1477 (2010)
                           doi:10.1016/j.cpc.2010.04.018

                                      AUTHORS
                                      -------
          E. Apra, E. J. Bylaska, W. A. de Jong, N. Govind, K. Kowalski,
       T. P. Straatsma, M. Valiev, H. J. J. van Dam, D. Wang, T. L. Windus,
        J. Hammond, J. Autschbach, K. Bhaskaran-Nair, J. Brabec, K. Lopata,
        S. Krishnamoorthy, W. Ma, M. Klemm, O. Villa, Y. Chen, V. Anisimov,
    F. Aquino, S. Hirata, M. T. Hackler, T. Risthaus, M. Malagoli, A. Marenich,
   A. Otero-de-la-Roza, J. Mullin, P. Nichols, R. Peverati, J. Pittner, Y. Zhao,
          P.-D. Fan, A. Fonari, M. Williamson, R. J. Harrison, M. Dupuis,
     D. Silverstein, D. M. A. Smith, J. Nieplocha, V. Tipparaju, M. Krishnan,
       B. E. Van Kuiken, A. Vazquez-Mayagoitia, L. Jensen, M. Swart, Q. Wu,
   T. Van Voorhis, A. A. Auer, M. Nooijen, L. D. Crosby, E. Brown, G. Cisneros,
     G. I. Fann, H. Fruchtl, J. Garza, K. Hirao, R. A. Kendall, J. A. Nichols,
       K. Tsemekhman, K. Wolinski, J. Anchell, D. E. Bernholdt, P. Borowski,
       T. Clark, D. Clerc, H. Dachsel, M. J. O. Deegan, K. Dyall, D. Elwood,
      E. Glendening, M. Gutowski, A. C. Hess, J. Jaffe, B. G. Johnson, J. Ju,
        R. Kobayashi, R. Kutteh, Z. Lin, R. Littlefield, X. Long, B. Meng,
      T. Nakajima, S. Niu, L. Pollack, M. Rosing, K. Glaesemann, G. Sandrone,
      M. Stave, H. Taylor, G. Thomas, J. H. van Lenthe, A. T. Wong, Z. Zhang.

 Total times  cpu:        7.7s     wall:        8.1s
