 argument  1 = uhf_h2o.nw



============================== echo of input deck ==============================
echo
start uhf_h2o_run
title h2o

geometry units bohr
o  0.0  0.0 0.11786656
h  0.0 1.84118838 -0.93531364
h  0.0 -1.84118838 -0.93531364
end

basis
 * library cc-pvdz
# * library aug-cc-pvtz
end
charge 0

scf
 uhf
end

task scf energy

dft
 odft
end

task dft energy
================================================================================


                                         
                                         


              Northwest Computational Chemistry Package (NWChem) 6.5
              ------------------------------------------------------


                    Environmental Molecular Sciences Laboratory
                       Pacific Northwest National Laboratory
                                Richland, WA 99352

                              Copyright (c) 1994-2013
                       Pacific Northwest National Laboratory
                            Battelle Memorial Institute

             NWChem is an open-source computational chemistry package
                        distributed under the terms of the
                      Educational Community License (ECL) 2.0
             A copy of the license is included with this distribution
                              in the LICENSE.TXT file

                                  ACKNOWLEDGMENT
                                  --------------

            This software and its documentation were developed at the
            EMSL at Pacific Northwest National Laboratory, a multiprogram
            national laboratory, operated for the U.S. Department of Energy
            by Battelle under Contract Number DE-AC05-76RL01830. Support
            for this work was provided by the Department of Energy Office
            of Biological and Environmental Research, Office of Basic
            Energy Sciences, and the Office of Advanced Scientific Computing.


           Job information
           ---------------

    hostname        = fryslan
    program         = ../bin/LINUX64/nwchem
    date            = Mon Oct 12 17:49:17 2015

    compiled        = Mon_Sep_28_15:17:03_2015
    source          = /home/users/wadejong/Json/NWChem
    nwchem branch   = Development
    nwchem revision = 27327
    ga revision     = 10576
    input           = uhf_h2o.nw
    prefix          = uhf_h2o_run.
    data base       = ./uhf_h2o_run.db
    status          = startup
    nproc           =        1
    time left       =     -1s



           Memory information
           ------------------

    heap     =   13107200 doubles =    100.0 Mbytes
    stack    =   13107197 doubles =    100.0 Mbytes
    global   =   26214400 doubles =    200.0 Mbytes (distinct from heap & stack)
    total    =   52428797 doubles =    400.0 Mbytes
    verify   = yes
    hardfail = no 


           Directory information
           ---------------------

  0 permanent = .
  0 scratch   = .




                                NWChem Input Module
                                -------------------


                                        h2o
                                        ---
 C2V symmetry detected

          ------
          auto-z
          ------


                             Geometry "geometry" -> ""
                             -------------------------

 Output coordinates in a.u. (scale by  1.000000000 to convert to a.u.)

  No.       Tag          Charge          X              Y              Z
 ---- ---------------- ---------- -------------- -------------- --------------
    1 o                    8.0000     0.00000000     0.00000000     0.21063604
    2 h                    1.0000    -1.84118838     0.00000000    -0.84254416
    3 h                    1.0000     1.84118838     0.00000000    -0.84254416

      Atomic Mass 
      ----------- 

      o                 15.994910
      h                  1.007825


 Effective nuclear repulsion energy (a.u.)       7.8147374646

            Nuclear Dipole moment (a.u.) 
            ----------------------------
        X                 Y               Z
 ---------------- ---------------- ----------------
     0.0000000000     0.0000000000     0.0000000000

      Symmetry information
      --------------------

 Group name             C2v       
 Group number             16
 Group order               4
 No. of unique centers     2

      Symmetry unique atoms

     1    2



                                Z-matrix (autoz)
                                -------- 

 Units are Angstrom for bonds and degrees for angles

      Type          Name      I     J     K     L     M      Value
      ----------- --------  ----- ----- ----- ----- ----- ----------
    1 Stretch                  1     2                       1.12245
    2 Stretch                  1     3                       1.12245
    3 Bend                     2     1     3               120.45993


            XYZ format geometry
            -------------------
     3
 geometry
 o                     0.00000000     0.00000000     0.11146380
 h                    -0.97431500     0.00000000    -0.44585520
 h                     0.97431500     0.00000000    -0.44585520



 Summary of "ao basis" -> "" (cartesian)
 ------------------------------------------------------------------------------
       Tag                 Description            Shells   Functions and Types
 ---------------- ------------------------------  ------  ---------------------
 *                          cc-pvdz                   on all atoms 


                      Basis "ao basis" -> "ao basis" (cartesian)
                      -----
  o (Oxygen)
  ----------
            Exponent  Coefficients 
       -------------- ---------------------------------------------------------
  1 S  1.17200000E+04  0.000710
  1 S  1.75900000E+03  0.005470
  1 S  4.00800000E+02  0.027837
  1 S  1.13700000E+02  0.104800
  1 S  3.70300000E+01  0.283062
  1 S  1.32700000E+01  0.448719
  1 S  5.02500000E+00  0.270952
  1 S  1.01300000E+00  0.015458

  2 S  1.17200000E+04 -0.000160
  2 S  1.75900000E+03 -0.001263
  2 S  4.00800000E+02 -0.006267
  2 S  1.13700000E+02 -0.025716
  2 S  3.70300000E+01 -0.070924
  2 S  1.32700000E+01 -0.165411
  2 S  5.02500000E+00 -0.116955
  2 S  1.01300000E+00  0.557368

  3 S  3.02300000E-01  1.000000

  4 P  1.77000000E+01  0.043018
  4 P  3.85400000E+00  0.228913
  4 P  1.04600000E+00  0.508728

  5 P  2.75300000E-01  1.000000

  6 D  1.18500000E+00  1.000000

  h (Hydrogen)
  ------------
            Exponent  Coefficients 
       -------------- ---------------------------------------------------------
  1 S  1.30100000E+01  0.019685
  1 S  1.96200000E+00  0.137977
  1 S  4.44600000E-01  0.478148

  2 S  1.22000000E-01  1.000000

  3 P  7.27000000E-01  1.000000



 Summary of "ao basis" -> "ao basis" (cartesian)
 ------------------------------------------------------------------------------
       Tag                 Description            Shells   Functions and Types
 ---------------- ------------------------------  ------  ---------------------
 o                          cc-pvdz                  6       15   3s2p1d
 h                          cc-pvdz                  3        5   2s1p


                                 NWChem SCF Module
                                 -----------------


                                        h2o



  ao basis        = "ao basis"
  functions       =    25
  atoms           =     3
  alpha electrons =     5
  beta  electrons =     5
  charge          =   0.00
  wavefunction    = UHF 
  input vectors   = atomic
  output vectors  = ./uhf_h2o_run.movecs
  use symmetry    = T
  symmetry adapt  = T


 Summary of "ao basis" -> "ao basis" (cartesian)
 ------------------------------------------------------------------------------
       Tag                 Description            Shells   Functions and Types
 ---------------- ------------------------------  ------  ---------------------
 o                          cc-pvdz                  6       15   3s2p1d
 h                          cc-pvdz                  3        5   2s1p


      Symmetry analysis of basis
      --------------------------

        a1         12
        a2          2
        b1          7
        b2          4


 Forming initial guess at       0.0s


      Superposition of Atomic Density Guess
      -------------------------------------

 Sum of atomic energies:         -75.76222910

      Non-variational initial energy
      ------------------------------

 Total energy =     -75.617583
 1-e energy   =    -119.460405
 2-e energy   =      36.028084
 HOMO         =      -0.427234
 LUMO         =       0.030612


   Symmetry analysis of molecular orbitals - initial alpha
   -------------------------------------------------------

  Numbering of irreducible representations: 

     1 a1          2 a2          3 b1          4 b2      

  Orbital symmetries:

     1 a1          2 a1          3 b1          4 a1          5 b2      
     6 a1          7 b1          8 a1          9 b1         10 a1      
    11 b2         12 b1         13 a2         14 a1         15 b2      


   Symmetry analysis of molecular orbitals - initial beta
   ------------------------------------------------------

  Numbering of irreducible representations: 

     1 a1          2 a2          3 b1          4 b2      

  Orbital symmetries:

     1 a1          2 a1          3 b1          4 a1          5 b2      
     6 a1          7 b1          8 a1          9 b1         10 a1      
    11 b2         12 b1         13 a2         14 a1         15 b2      


 Starting SCF solution at       0.1s



 ----------------------------------------------
         Quadratically convergent UHF

 Convergence threshold     :          1.000E-04
 Maximum no. of iterations :           30
 Integral*density screening:          1.000E-07
 ----------------------------------------------


 #quartets = 1.953D+03 #integrals = 1.805D+04 #direct =  0.0% #cached =100.0%


 Integral file          = ./uhf_h2o_run.aoints.0
 Record size in doubles =    65536    No. of integs per rec  =    43688
 Max. records in memory =        2    Max. records in file   =  1631622
 No. of bits per label  =        8    No. of bits per value  =       64


              iter       energy          gnorm     gmax       time
             ----- ------------------- --------- --------- --------
                 1      -75.9292665836  6.08D-01  1.76D-01      0.1
                 2      -75.9673931814  1.51D-01  5.17D-02      0.1
                 3      -75.9709150853  3.31D-03  1.12D-03      0.1
                 4      -75.9709171974  4.94D-06  1.57D-06      0.1


       Final UHF  results 
       ------------------ 

         Total SCF energy =    -75.970917197431
      One electron energy =   -120.672042251384
      Two electron energy =     36.886387589381
 Nuclear repulsion energy =      7.814737464571

                       Sz =      0.0000
                 Sz(Sz+1) =      0.0000
                      S^2 =      0.0000

        Time for solution =      0.0s



       Symmetry analysis of molecular orbitals - alpha
       -----------------------------------------------

  Numbering of irreducible representations: 

     1 a1          2 a2          3 b1          4 b2      

  Orbital symmetries:

     1 a1          2 a1          3 b1          4 a1          5 b2      
     6 a1          7 b1          8 a1          9 b1         10 a1      
    11 b2         12 b1         13 a2         14 a1         15 b2      


       Symmetry analysis of molecular orbitals - beta
       ----------------------------------------------

  Numbering of irreducible representations: 

     1 a1          2 a2          3 b1          4 b2      

  Orbital symmetries:

     1 a1          2 a1          3 b1          4 a1          5 b2      
     6 a1          7 b1          8 a1          9 b1         10 a1      
    11 b2         12 b1         13 a2         14 a1         15 b2      

          Final alpha eigenvalues
          -----------------------

              1      
    1  -20.5661
    2   -1.2593
    3   -0.6388
    4   -0.5080
    5   -0.4774
    6    0.1451
    7    0.2282
    8    0.6738
    9    0.7436
   10    1.1708
   11    1.1908
   12    1.2519
   13    1.4190
   14    1.5093
   15    1.7039

          Final beta eigenvalues
          ----------------------

              1      
    1  -20.5661
    2   -1.2593
    3   -0.6388
    4   -0.5080
    5   -0.4774
    6    0.1451
    7    0.2282
    8    0.6738
    9    0.7436
   10    1.1708
   11    1.1908
   12    1.2519
   13    1.4190
   14    1.5093
   15    1.7039

                    UHF Final Alpha Molecular Orbital Analysis
                    ------------------------------------------

 Vector    2  Occ=1.000000D+00  E=-1.259342D+00  Symmetry=a1
              MO Center= -3.2D-16,  1.6D-17,  6.7D-03, r^2= 5.3D-01
   Bfn.  Coefficient  Atom+Function         Bfn.  Coefficient  Atom+Function  
  ----- ------------  ---------------      ----- ------------  ---------------
     3      0.475191  1 O  s                  2      0.455401  1 O  s          

 Vector    3  Occ=1.000000D+00  E=-6.388327D-01  Symmetry=b1
              MO Center=  3.0D-16,  5.5D-18, -1.1D-01, r^2= 9.6D-01
   Bfn.  Coefficient  Atom+Function         Bfn.  Coefficient  Atom+Function  
  ----- ------------  ---------------      ----- ------------  ---------------
     4      0.462774  1 O  px                16     -0.302792  2 H  s          
    21      0.302792  3 H  s                  7      0.247499  1 O  px         

 Vector    4  Occ=1.000000D+00  E=-5.079513D-01  Symmetry=a1
              MO Center= -1.5D-18,  9.2D-18,  9.6D-02, r^2= 7.9D-01
   Bfn.  Coefficient  Atom+Function         Bfn.  Coefficient  Atom+Function  
  ----- ------------  ---------------      ----- ------------  ---------------
     6      0.548989  1 O  pz                 9      0.415584  1 O  pz         
     3      0.273968  1 O  s                 16     -0.184525  2 H  s          
    21     -0.184525  3 H  s          

 Vector    5  Occ=1.000000D+00  E=-4.774245D-01  Symmetry=b2
              MO Center= -5.9D-18, -1.6D-16,  9.6D-02, r^2= 6.0D-01
   Bfn.  Coefficient  Atom+Function         Bfn.  Coefficient  Atom+Function  
  ----- ------------  ---------------      ----- ------------  ---------------
     5      0.635100  1 O  py                 8      0.502944  1 O  py         

 Vector    6  Occ=0.000000D+00  E= 1.451279D-01  Symmetry=a1
              MO Center= -1.3D-16,  2.3D-17, -4.8D-01, r^2= 3.0D+00
   Bfn.  Coefficient  Atom+Function         Bfn.  Coefficient  Atom+Function  
  ----- ------------  ---------------      ----- ------------  ---------------
     3      0.911016  1 O  s                 17     -0.748887  2 H  s          
    22     -0.748887  3 H  s                  9     -0.351189  1 O  pz         
     6     -0.231711  1 O  pz         

 Vector    7  Occ=0.000000D+00  E= 2.281625D-01  Symmetry=b1
              MO Center=  6.2D-16,  1.8D-31, -5.2D-01, r^2= 3.6D+00
   Bfn.  Coefficient  Atom+Function         Bfn.  Coefficient  Atom+Function  
  ----- ------------  ---------------      ----- ------------  ---------------
    17      1.122886  2 H  s                 22     -1.122886  3 H  s          
     7      0.675721  1 O  px                 4      0.325921  1 O  px         

 Vector    8  Occ=0.000000D+00  E= 6.737701D-01  Symmetry=a1
              MO Center= -3.4D-16,  2.5D-17, -5.0D-01, r^2= 2.2D+00
   Bfn.  Coefficient  Atom+Function         Bfn.  Coefficient  Atom+Function  
  ----- ------------  ---------------      ----- ------------  ---------------
    16      0.898667  2 H  s                 21      0.898667  3 H  s          
    17     -0.678277  2 H  s                 22     -0.678277  3 H  s          
     3      0.301004  1 O  s                  6      0.217743  1 O  pz         
     2     -0.202059  1 O  s          

 Vector    9  Occ=0.000000D+00  E= 7.436148D-01  Symmetry=b1
              MO Center= -4.6D-17,  2.9D-32, -3.2D-01, r^2= 2.3D+00
   Bfn.  Coefficient  Atom+Function         Bfn.  Coefficient  Atom+Function  
  ----- ------------  ---------------      ----- ------------  ---------------
    16      0.924034  2 H  s                 21     -0.924034  3 H  s          
    17     -0.828634  2 H  s                 22      0.828634  3 H  s          
     4      0.348785  1 O  px                 7      0.173689  1 O  px         
    12      0.152814  1 O  dxz        

 Vector   10  Occ=0.000000D+00  E= 1.170773D+00  Symmetry=a1
              MO Center=  3.3D-17, -1.0D-18,  9.7D-02, r^2= 1.2D+00
   Bfn.  Coefficient  Atom+Function         Bfn.  Coefficient  Atom+Function  
  ----- ------------  ---------------      ----- ------------  ---------------
     9      1.008118  1 O  pz                 6     -0.839290  1 O  pz         
     3     -0.280982  1 O  s                 20      0.270875  2 H  pz         
    25      0.270875  3 H  pz                16      0.202854  2 H  s          
    21      0.202854  3 H  s          

 Vector   11  Occ=0.000000D+00  E= 1.190809D+00  Symmetry=b2
              MO Center= -6.5D-17, -1.4D-16,  4.2D-02, r^2= 1.1D+00
   Bfn.  Coefficient  Atom+Function         Bfn.  Coefficient  Atom+Function  
  ----- ------------  ---------------      ----- ------------  ---------------
     5      0.941867  1 O  py                 8     -0.924915  1 O  py         

 Vector   12  Occ=0.000000D+00  E= 1.251923D+00  Symmetry=b1
              MO Center= -8.8D-17,  1.2D-16,  9.2D-02, r^2= 1.6D+00
   Bfn.  Coefficient  Atom+Function         Bfn.  Coefficient  Atom+Function  
  ----- ------------  ---------------      ----- ------------  ---------------
     7      1.527893  1 O  px                 4     -0.696879  1 O  px         
    17      0.535156  2 H  s                 22     -0.535156  3 H  s          
    18      0.416541  2 H  px                23      0.416541  3 H  px         
    16      0.329059  2 H  s                 21     -0.329059  3 H  s          

 Vector   13  Occ=0.000000D+00  E= 1.419045D+00  Symmetry=a2
              MO Center= -1.5D-15,  5.5D-17, -4.1D-01, r^2= 1.4D+00
   Bfn.  Coefficient  Atom+Function         Bfn.  Coefficient  Atom+Function  
  ----- ------------  ---------------      ----- ------------  ---------------
    19      0.674529  2 H  py                24     -0.674529  3 H  py         
    11     -0.256878  1 O  dxy        

 Vector   14  Occ=0.000000D+00  E= 1.509282D+00  Symmetry=a1
              MO Center=  1.5D-15,  7.6D-17,  6.8D-02, r^2= 1.6D+00
   Bfn.  Coefficient  Atom+Function         Bfn.  Coefficient  Atom+Function  
  ----- ------------  ---------------      ----- ------------  ---------------
     3      1.929581  1 O  s                  2     -1.042676  1 O  s          
     1     -0.498635  1 O  s                 20     -0.442966  2 H  pz         
    25     -0.442966  3 H  pz                17     -0.340118  2 H  s          
    22     -0.340118  3 H  s                 10     -0.306529  1 O  dxx        
     9      0.262577  1 O  pz                13     -0.213422  1 O  dyy        

 Vector   15  Occ=0.000000D+00  E= 1.703919D+00  Symmetry=b2
              MO Center=  1.4D-15, -4.5D-17, -2.7D-01, r^2= 1.6D+00
   Bfn.  Coefficient  Atom+Function         Bfn.  Coefficient  Atom+Function  
  ----- ------------  ---------------      ----- ------------  ---------------
    19     -0.745248  2 H  py                24     -0.745248  3 H  py         
     8      0.691827  1 O  py                14      0.243434  1 O  dyz        
     5     -0.224011  1 O  py         


                     UHF Final Beta Molecular Orbital Analysis
                     -----------------------------------------

 Vector    2  Occ=1.000000D+00  E=-1.259342D+00  Symmetry=a1
              MO Center= -3.2D-16,  1.6D-17,  6.7D-03, r^2= 5.3D-01
   Bfn.  Coefficient  Atom+Function         Bfn.  Coefficient  Atom+Function  
  ----- ------------  ---------------      ----- ------------  ---------------
     3      0.475191  1 O  s                  2      0.455401  1 O  s          

 Vector    3  Occ=1.000000D+00  E=-6.388327D-01  Symmetry=b1
              MO Center=  3.3D-16,  9.5D-34, -1.1D-01, r^2= 9.6D-01
   Bfn.  Coefficient  Atom+Function         Bfn.  Coefficient  Atom+Function  
  ----- ------------  ---------------      ----- ------------  ---------------
     4      0.462774  1 O  px                16     -0.302792  2 H  s          
    21      0.302792  3 H  s                  7      0.247499  1 O  px         

 Vector    4  Occ=1.000000D+00  E=-5.079513D-01  Symmetry=a1
              MO Center=  2.6D-17,  9.2D-18,  9.6D-02, r^2= 7.9D-01
   Bfn.  Coefficient  Atom+Function         Bfn.  Coefficient  Atom+Function  
  ----- ------------  ---------------      ----- ------------  ---------------
     6      0.548989  1 O  pz                 9      0.415584  1 O  pz         
     3      0.273968  1 O  s                 16     -0.184525  2 H  s          
    21     -0.184525  3 H  s          

 Vector    5  Occ=1.000000D+00  E=-4.774245D-01  Symmetry=b2
              MO Center= -7.6D-18, -1.6D-16,  9.6D-02, r^2= 6.0D-01
   Bfn.  Coefficient  Atom+Function         Bfn.  Coefficient  Atom+Function  
  ----- ------------  ---------------      ----- ------------  ---------------
     5      0.635100  1 O  py                 8      0.502944  1 O  py         

 Vector    6  Occ=0.000000D+00  E= 1.451279D-01  Symmetry=a1
              MO Center= -3.0D-17,  2.3D-17, -4.8D-01, r^2= 3.0D+00
   Bfn.  Coefficient  Atom+Function         Bfn.  Coefficient  Atom+Function  
  ----- ------------  ---------------      ----- ------------  ---------------
     3      0.911016  1 O  s                 17     -0.748887  2 H  s          
    22     -0.748887  3 H  s                  9     -0.351189  1 O  pz         
     6     -0.231711  1 O  pz         

 Vector    7  Occ=0.000000D+00  E= 2.281625D-01  Symmetry=b1
              MO Center= -6.6D-17,  8.7D-32, -5.2D-01, r^2= 3.6D+00
   Bfn.  Coefficient  Atom+Function         Bfn.  Coefficient  Atom+Function  
  ----- ------------  ---------------      ----- ------------  ---------------
    17      1.122886  2 H  s                 22     -1.122886  3 H  s          
     7      0.675721  1 O  px                 4      0.325921  1 O  px         

 Vector    8  Occ=0.000000D+00  E= 6.737701D-01  Symmetry=a1
              MO Center= -6.3D-17,  2.4D-17, -5.0D-01, r^2= 2.2D+00
   Bfn.  Coefficient  Atom+Function         Bfn.  Coefficient  Atom+Function  
  ----- ------------  ---------------      ----- ------------  ---------------
    16      0.898667  2 H  s                 21      0.898667  3 H  s          
    17     -0.678277  2 H  s                 22     -0.678277  3 H  s          
     3      0.301004  1 O  s                  6      0.217743  1 O  pz         
     2     -0.202059  1 O  s          

 Vector    9  Occ=0.000000D+00  E= 7.436148D-01  Symmetry=b1
              MO Center= -1.0D-16,  4.2D-32, -3.2D-01, r^2= 2.3D+00
   Bfn.  Coefficient  Atom+Function         Bfn.  Coefficient  Atom+Function  
  ----- ------------  ---------------      ----- ------------  ---------------
    16      0.924034  2 H  s                 21     -0.924034  3 H  s          
    17     -0.828634  2 H  s                 22      0.828634  3 H  s          
     4      0.348785  1 O  px                 7      0.173689  1 O  px         
    12      0.152814  1 O  dxz        

 Vector   10  Occ=0.000000D+00  E= 1.170773D+00  Symmetry=a1
              MO Center=  6.5D-17, -1.0D-18,  9.7D-02, r^2= 1.2D+00
   Bfn.  Coefficient  Atom+Function         Bfn.  Coefficient  Atom+Function  
  ----- ------------  ---------------      ----- ------------  ---------------
     9      1.008118  1 O  pz                 6     -0.839290  1 O  pz         
     3     -0.280982  1 O  s                 20      0.270875  2 H  pz         
    25      0.270875  3 H  pz                16      0.202854  2 H  s          
    21      0.202854  3 H  s          

 Vector   11  Occ=0.000000D+00  E= 1.190809D+00  Symmetry=b2
              MO Center=  1.4D-17, -5.3D-18,  4.2D-02, r^2= 1.1D+00
   Bfn.  Coefficient  Atom+Function         Bfn.  Coefficient  Atom+Function  
  ----- ------------  ---------------      ----- ------------  ---------------
     5      0.941867  1 O  py                 8     -0.924915  1 O  py         

 Vector   12  Occ=0.000000D+00  E= 1.251923D+00  Symmetry=b1
              MO Center= -5.1D-17,  3.7D-34,  9.2D-02, r^2= 1.6D+00
   Bfn.  Coefficient  Atom+Function         Bfn.  Coefficient  Atom+Function  
  ----- ------------  ---------------      ----- ------------  ---------------
     7      1.527893  1 O  px                 4     -0.696879  1 O  px         
    17      0.535156  2 H  s                 22     -0.535156  3 H  s          
    18      0.416541  2 H  px                23      0.416541  3 H  px         
    16      0.329059  2 H  s                 21     -0.329059  3 H  s          

 Vector   13  Occ=0.000000D+00  E= 1.419045D+00  Symmetry=a2
              MO Center= -1.6D-15,  1.8D-16, -4.1D-01, r^2= 1.4D+00
   Bfn.  Coefficient  Atom+Function         Bfn.  Coefficient  Atom+Function  
  ----- ------------  ---------------      ----- ------------  ---------------
    19      0.674529  2 H  py                24     -0.674529  3 H  py         
    11     -0.256878  1 O  dxy        

 Vector   14  Occ=0.000000D+00  E= 1.509282D+00  Symmetry=a1
              MO Center=  4.5D-17, -3.3D-17,  6.8D-02, r^2= 1.6D+00
   Bfn.  Coefficient  Atom+Function         Bfn.  Coefficient  Atom+Function  
  ----- ------------  ---------------      ----- ------------  ---------------
     3      1.929581  1 O  s                  2     -1.042676  1 O  s          
     1     -0.498635  1 O  s                 20     -0.442966  2 H  pz         
    25     -0.442966  3 H  pz                17     -0.340118  2 H  s          
    22     -0.340118  3 H  s                 10     -0.306529  1 O  dxx        
     9      0.262577  1 O  pz                13     -0.213422  1 O  dyy        

 Vector   15  Occ=0.000000D+00  E= 1.703919D+00  Symmetry=b2
              MO Center=  1.3D-15, -4.9D-16, -2.7D-01, r^2= 1.6D+00
   Bfn.  Coefficient  Atom+Function         Bfn.  Coefficient  Atom+Function  
  ----- ------------  ---------------      ----- ------------  ---------------
    19     -0.745248  2 H  py                24     -0.745248  3 H  py         
     8      0.691827  1 O  py                14      0.243434  1 O  dyz        
     5     -0.224011  1 O  py         


 center of mass
 --------------
 x =   0.00000000 y =   0.00000000 z =   0.09276948

 moments of inertia (a.u.)
 ------------------
           1.985523714464           0.000000000000           0.000000000000
           0.000000000000           8.818526119040           0.000000000000
           0.000000000000           0.000000000000           6.833002404577

  Mulliken analysis of the total density
  --------------------------------------

    Atom       Charge   Shell Charges
 -----------   ------   -------------------------------------------------------
    1 O    8     8.50   2.00  0.84  0.95  2.72  1.98  0.01
    2 H    1     0.75   0.57  0.13  0.06
    3 H    1     0.75   0.57  0.13  0.06

  Mulliken analysis of the alpha density
  --------------------------------------

    Atom       Charge   Shell Charges
 -----------   ------   -------------------------------------------------------
    1 O    8     4.25   1.00  0.42  0.47  1.36  0.99  0.00
    2 H    1     0.38   0.28  0.06  0.03
    3 H    1     0.38   0.28  0.06  0.03

   Mulliken analysis of the beta density
   -------------------------------------

    Atom       Charge   Shell Charges
 -----------   ------   -------------------------------------------------------
    1 O    8     4.25   1.00  0.42  0.47  1.36  0.99  0.00
    2 H    1     0.38   0.28  0.06  0.03
    3 H    1     0.38   0.28  0.06  0.03

   Mulliken analysis of the spin density
   -------------------------------------

    Atom       Charge   Shell Charges
 -----------   ------   -------------------------------------------------------
    1 O    8     0.00   0.00  0.00  0.00  0.00 -0.00  0.00
    2 H    1     0.00   0.00 -0.00  0.00
    3 H    1    -0.00  -0.00 -0.00 -0.00

       Multipole analysis of the density wrt the origin
       ------------------------------------------------

     L   x y z        total         alpha         beta         nuclear
     -   - - -        -----         -----         ----         -------
     0   0 0 0     -0.000000     -5.000000     -5.000000     10.000000

     1   1 0 0      0.000000      0.000000      0.000000      0.000000
     1   0 1 0      0.000000      0.000000      0.000000      0.000000
     1   0 0 1     -0.741200     -0.370600     -0.370600      0.000000

     2   2 0 0     -2.122383     -4.451166     -4.451166      6.779949
     2   1 1 0      0.000000      0.000000      0.000000      0.000000
     2   1 0 1     -0.000000     -0.000000      0.000000      0.000000
     2   0 2 0     -5.512468     -2.756234     -2.756234      0.000000
     2   0 1 1      0.000000      0.000000      0.000000      0.000000
     2   0 0 2     -4.783857     -3.279279     -3.279279      1.774702


 Parallel integral file used       1 records with       0 large values


 Task  times  cpu:        0.1s     wall:        0.1s


                                NWChem Input Module
                                -------------------



                                 NWChem DFT Module
                                 -----------------


                                        h2o




 Summary of "ao basis" -> "ao basis" (cartesian)
 ------------------------------------------------------------------------------
       Tag                 Description            Shells   Functions and Types
 ---------------- ------------------------------  ------  ---------------------
 o                          cc-pvdz                  6       15   3s2p1d
 h                          cc-pvdz                  3        5   2s1p


      Symmetry analysis of basis
      --------------------------

        a1         12
        a2          2
        b1          7
        b2          4

  Caching 1-el integrals 

            General Information
            -------------------
          SCF calculation type: DFT
          Wavefunction type:  spin polarized.
          No. of atoms     :     3
          No. of electrons :    10
           Alpha electrons :     5
            Beta electrons :     5
          Charge           :     0
          Spin multiplicity:     1
          Use of symmetry is: on ; symmetry adaption is: on 
          Maximum number of iterations:  30
          AO basis - number of functions:    25
                     number of shells:    12
          Convergence on energy requested: 1.00D-06
          Convergence on density requested: 1.00D-05
          Convergence on gradient requested: 5.00D-04

              XC Information
              --------------
                        Slater Exchange Functional  1.000 local    
                      VWN V Correlation Functional  1.000 local    

             Grid Information
             ----------------
          Grid used for XC integration:  medium    
          Radial quadrature: Mura-Knowles        
          Angular quadrature: Lebedev. 
          Tag              B.-S. Rad. Rad. Pts. Rad. Cut. Ang. Pts.
          ---              ---------- --------- --------- ---------
          o                   0.60       49           6.0       434
          h                   0.35       45           7.0       434
          Grid pruning is: on 
          Number of quadrature shells:    94
          Spatial weights used:  Erf1

          Convergence Information
          -----------------------
          Convergence aids based upon iterative change in 
          total energy or number of iterations. 
          Levelshifting, if invoked, occurs when the 
          HOMO/LUMO gap drops below (HL_TOL): 1.00D-02
          DIIS, if invoked, will attempt to extrapolate 
          using up to (NFOCK): 10 stored Fock matrices.

                    Damping( 0%)  Levelshifting(0.5)       DIIS
                  --------------- ------------------- ---------------
          dE  on:    start            ASAP                start   
          dE off:    2 iters         30 iters            30 iters 


      Screening Tolerance Information
      -------------------------------
          Density screening/tol_rho: 1.00D-10
          AO Gaussian exp screening on grid/accAOfunc:  14
          CD Gaussian exp screening on grid/accCDfunc:  20
          XC Gaussian exp screening on grid/accXCfunc:  20
          Schwarz screening/accCoul: 1.00D-08


      Superposition of Atomic Density Guess
      -------------------------------------

 Sum of atomic energies:         -75.76222910

      Non-variational initial energy
      ------------------------------

 Total energy =     -75.617583
 1-e energy   =    -119.460405
 2-e energy   =      36.028084
 HOMO         =      -0.427234
 LUMO         =       0.030612


   Symmetry analysis of molecular orbitals - initial alpha
   -------------------------------------------------------

  Numbering of irreducible representations: 

     1 a1          2 a2          3 b1          4 b2      

  Orbital symmetries:

     1 a1          2 a1          3 b1          4 a1          5 b2      
     6 a1          7 b1          8 a1          9 b1         10 a1      
    11 b2         12 b1         13 a2         14 a1         15 b2      


   Symmetry analysis of molecular orbitals - initial beta
   ------------------------------------------------------

  Numbering of irreducible representations: 

     1 a1          2 a2          3 b1          4 b2      

  Orbital symmetries:

     1 a1          2 a1          3 b1          4 a1          5 b2      
     6 a1          7 b1          8 a1          9 b1         10 a1      
    11 b2         12 b1         13 a2         14 a1         15 b2      

   Time after variat. SCF:      0.1
   Time prior to 1st pass:      0.1

 #quartets = 1.953D+03 #integrals = 1.805D+04 #direct =  0.0% #cached =100.0%


 Integral file          = ./uhf_h2o_run.aoints.0
 Record size in doubles =    65536    No. of integs per rec  =    43688
 Max. records in memory =        2    Max. records in file   =  1631622
 No. of bits per label  =        8    No. of bits per value  =       64


 Grid_pts file          = ./uhf_h2o_run.gridpts.0
 Record size in doubles =  12289        No. of grid_pts per rec  =   3070
 Max. records in memory =     16        Max. recs in file   =   8701282


           Memory utilization after 1st SCF pass: 
           Heap Space remaining (MW):       12.78            12777632
          Stack Space remaining (MW):       13.11            13106844

   convergence    iter        energy       DeltaE   RMS-Dens  Diis-err    time
 ---------------- ----- ----------------- --------- --------- ---------  ------
 d= 0,ls=0.0,diis     1    -75.7723552364 -8.36D+01  2.08D-02  1.71D-01     0.2
                                                     2.08D-02  1.71D-01
 d= 0,ls=0.0,diis     2    -75.6539287364  1.18D-01  1.62D-02  4.03D-01     0.2
                                                     1.62D-02  4.03D-01
 d= 0,ls=0.0,diis     3    -75.8104696127 -1.57D-01  2.55D-03  2.80D-02     0.2
                                                     2.55D-03  2.80D-02
 d= 0,ls=0.0,diis     4    -75.8206610748 -1.02D-02  4.02D-04  3.00D-04     0.2
                                                     4.02D-04  3.00D-04
 d= 0,ls=0.0,diis     5    -75.8207977796 -1.37D-04  5.02D-05  1.66D-06     0.3
                                                     5.02D-05  1.66D-06
 d= 0,ls=0.0,diis     6    -75.8207986144 -8.35D-07  1.09D-05  2.30D-07     0.3
                                                     1.09D-05  2.30D-07
 d= 0,ls=0.0,diis     7    -75.8207987199 -1.05D-07  3.98D-07  1.44D-10     0.3
                                                     3.98D-07  1.44D-10


         Total DFT energy =      -75.820798719904
      One electron energy =     -120.677256105935
           Coulomb energy =       45.689203915567
    Exchange-Corr. energy =       -8.647483994108
 Nuclear repulsion energy =        7.814737464571

 Numeric. integr. density =       10.000000962748

     Total iterative time =      0.2s



                  Occupations of the irreducible representations
                  ----------------------------------------------

                     irrep           alpha         beta
                     --------     --------     --------
                     a1                3.0          3.0
                     a2                0.0          0.0
                     b1                1.0          1.0
                     b2                1.0          1.0


                    DFT Final Alpha Molecular Orbital Analysis
                    ------------------------------------------

 Vector    1  Occ=1.000000D+00  E=-1.860340D+01  Symmetry=a1
              MO Center=  4.6D-20, -2.2D-20,  1.1D-01, r^2= 1.5D-02
   Bfn.  Coefficient  Atom+Function         Bfn.  Coefficient  Atom+Function  
  ----- ------------  ---------------      ----- ------------  ---------------
     1      1.005656  1 O  s          

 Vector    2  Occ=1.000000D+00  E=-8.310968D-01  Symmetry=a1
              MO Center=  7.6D-17,  5.1D-18, -4.3D-02, r^2= 5.4D-01
   Bfn.  Coefficient  Atom+Function         Bfn.  Coefficient  Atom+Function  
  ----- ------------  ---------------      ----- ------------  ---------------
     3      0.464960  1 O  s                  2      0.447948  1 O  s          

 Vector    3  Occ=1.000000D+00  E=-4.297096D-01  Symmetry=b1
              MO Center= -5.9D-17,  3.0D-33, -1.2D-01, r^2= 9.7D-01
   Bfn.  Coefficient  Atom+Function         Bfn.  Coefficient  Atom+Function  
  ----- ------------  ---------------      ----- ------------  ---------------
     4      0.485216  1 O  px                16     -0.305973  2 H  s          
    21      0.305973  3 H  s                  7      0.217020  1 O  px         

 Vector    4  Occ=1.000000D+00  E=-2.686417D-01  Symmetry=a1
              MO Center=  7.2D-17,  1.2D-17,  1.3D-01, r^2= 7.9D-01
   Bfn.  Coefficient  Atom+Function         Bfn.  Coefficient  Atom+Function  
  ----- ------------  ---------------      ----- ------------  ---------------
     6      0.550207  1 O  pz                 9      0.394747  1 O  pz         
     3      0.339553  1 O  s                 16     -0.181299  2 H  s          
    21     -0.181299  3 H  s          

 Vector    5  Occ=1.000000D+00  E=-2.113586D-01  Symmetry=b2
              MO Center=  3.8D-17, -1.5D-19,  9.3D-02, r^2= 6.0D-01
   Bfn.  Coefficient  Atom+Function         Bfn.  Coefficient  Atom+Function  
  ----- ------------  ---------------      ----- ------------  ---------------
     5      0.634750  1 O  py                 8      0.500528  1 O  py         

 Vector    6  Occ=0.000000D+00  E=-2.265022D-02  Symmetry=a1
              MO Center= -8.2D-16,  1.7D-17, -4.4D-01, r^2= 2.6D+00
   Bfn.  Coefficient  Atom+Function         Bfn.  Coefficient  Atom+Function  
  ----- ------------  ---------------      ----- ------------  ---------------
     3      0.768852  1 O  s                 17     -0.632828  2 H  s          
    22     -0.632828  3 H  s                  9     -0.319317  1 O  pz         
     6     -0.307944  1 O  pz                16     -0.240502  2 H  s          
    21     -0.240502  3 H  s                  2      0.169508  1 O  s          

 Vector    7  Occ=0.000000D+00  E= 5.897910D-02  Symmetry=b1
              MO Center=  3.4D-16, -2.6D-17, -4.5D-01, r^2= 2.9D+00
   Bfn.  Coefficient  Atom+Function         Bfn.  Coefficient  Atom+Function  
  ----- ------------  ---------------      ----- ------------  ---------------
    17      0.927458  2 H  s                 22     -0.927458  3 H  s          
     7      0.574129  1 O  px                 4      0.450714  1 O  px         
    16      0.182254  2 H  s                 21     -0.182254  3 H  s          

 Vector    8  Occ=0.000000D+00  E= 4.353794D-01  Symmetry=a1
              MO Center=  2.9D-15, -9.0D-18, -5.2D-01, r^2= 2.4D+00
   Bfn.  Coefficient  Atom+Function         Bfn.  Coefficient  Atom+Function  
  ----- ------------  ---------------      ----- ------------  ---------------
    16      0.883854  2 H  s                 21      0.883854  3 H  s          
    17     -0.760421  2 H  s                 22     -0.760421  3 H  s          
     3      0.336233  1 O  s                  6      0.224292  1 O  pz         
     2     -0.160272  1 O  s          

 Vector    9  Occ=0.000000D+00  E= 4.922238D-01  Symmetry=b1
              MO Center= -3.4D-15, -9.0D-33, -3.7D-01, r^2= 2.8D+00
   Bfn.  Coefficient  Atom+Function         Bfn.  Coefficient  Atom+Function  
  ----- ------------  ---------------      ----- ------------  ---------------
    17      1.011871  2 H  s                 22     -1.011871  3 H  s          
    16     -0.899915  2 H  s                 21      0.899915  3 H  s          
     4     -0.339890  1 O  px         

 Vector   10  Occ=0.000000D+00  E= 8.332108D-01  Symmetry=a1
              MO Center= -2.8D-17,  6.1D-22,  1.1D-01, r^2= 1.2D+00
   Bfn.  Coefficient  Atom+Function         Bfn.  Coefficient  Atom+Function  
  ----- ------------  ---------------      ----- ------------  ---------------
     9      1.039709  1 O  pz                 6     -0.847535  1 O  pz         
     3     -0.293967  1 O  s                 16      0.236511  2 H  s          
    20      0.235570  2 H  pz                21      0.236511  3 H  s          
    25      0.235570  3 H  pz         

 Vector   11  Occ=0.000000D+00  E= 8.476422D-01  Symmetry=b2
              MO Center= -2.8D-18,  6.0D-22,  4.7D-02, r^2= 1.1D+00
   Bfn.  Coefficient  Atom+Function         Bfn.  Coefficient  Atom+Function  
  ----- ------------  ---------------      ----- ------------  ---------------
     5      0.945298  1 O  py                 8     -0.931464  1 O  py         

 Vector   12  Occ=0.000000D+00  E= 9.289128D-01  Symmetry=b1
              MO Center=  7.5D-17, -2.1D-17,  1.2D-01, r^2= 1.6D+00
   Bfn.  Coefficient  Atom+Function         Bfn.  Coefficient  Atom+Function  
  ----- ------------  ---------------      ----- ------------  ---------------
     7      1.572209  1 O  px                 4     -0.708998  1 O  px         
    17      0.540067  2 H  s                 22     -0.540067  3 H  s          
    16      0.365664  2 H  s                 21     -0.365664  3 H  s          
    18      0.347628  2 H  px                23      0.347628  3 H  px         

 Vector   13  Occ=0.000000D+00  E= 1.127708D+00  Symmetry=a2
              MO Center= -6.5D-18,  2.6D-17, -4.1D-01, r^2= 1.4D+00
   Bfn.  Coefficient  Atom+Function         Bfn.  Coefficient  Atom+Function  
  ----- ------------  ---------------      ----- ------------  ---------------
    19      0.672384  2 H  py                24     -0.672384  3 H  py         
    11     -0.269728  1 O  dxy        

 Vector   14  Occ=0.000000D+00  E= 1.213461D+00  Symmetry=a1
              MO Center= -6.9D-16,  5.1D-17,  4.5D-02, r^2= 1.6D+00
   Bfn.  Coefficient  Atom+Function         Bfn.  Coefficient  Atom+Function  
  ----- ------------  ---------------      ----- ------------  ---------------
     3      1.949641  1 O  s                  2     -1.084776  1 O  s          
     1     -0.510369  1 O  s                 20     -0.426534  2 H  pz         
    25     -0.426534  3 H  pz                17     -0.365774  2 H  s          
    22     -0.365774  3 H  s                 10     -0.302636  1 O  dxx        
     9      0.233419  1 O  pz                13     -0.195345  1 O  dyy        

 Vector   15  Occ=0.000000D+00  E= 1.400783D+00  Symmetry=b2
              MO Center= -5.3D-17, -3.0D-16, -2.7D-01, r^2= 1.6D+00
   Bfn.  Coefficient  Atom+Function         Bfn.  Coefficient  Atom+Function  
  ----- ------------  ---------------      ----- ------------  ---------------
    19     -0.744984  2 H  py                24     -0.744984  3 H  py         
     8      0.683452  1 O  py                14      0.254460  1 O  dyz        
     5     -0.209316  1 O  py         


                     DFT Final Beta Molecular Orbital Analysis
                     -----------------------------------------

 Vector    1  Occ=1.000000D+00  E=-1.860340D+01  Symmetry=a1
              MO Center= -1.5D-18, -2.2D-20,  1.1D-01, r^2= 1.5D-02
   Bfn.  Coefficient  Atom+Function         Bfn.  Coefficient  Atom+Function  
  ----- ------------  ---------------      ----- ------------  ---------------
     1      1.005656  1 O  s          

 Vector    2  Occ=1.000000D+00  E=-8.310968D-01  Symmetry=a1
              MO Center= -4.2D-17,  3.1D-18, -4.3D-02, r^2= 5.4D-01
   Bfn.  Coefficient  Atom+Function         Bfn.  Coefficient  Atom+Function  
  ----- ------------  ---------------      ----- ------------  ---------------
     3      0.464960  1 O  s                  2      0.447948  1 O  s          

 Vector    3  Occ=1.000000D+00  E=-4.297096D-01  Symmetry=b1
              MO Center=  7.0D-16, -4.6D-17, -1.2D-01, r^2= 9.7D-01
   Bfn.  Coefficient  Atom+Function         Bfn.  Coefficient  Atom+Function  
  ----- ------------  ---------------      ----- ------------  ---------------
     4      0.485216  1 O  px                16     -0.305973  2 H  s          
    21      0.305973  3 H  s                  7      0.217020  1 O  px         

 Vector    4  Occ=1.000000D+00  E=-2.686417D-01  Symmetry=a1
              MO Center= -1.2D-16,  4.3D-19,  1.3D-01, r^2= 7.9D-01
   Bfn.  Coefficient  Atom+Function         Bfn.  Coefficient  Atom+Function  
  ----- ------------  ---------------      ----- ------------  ---------------
     6      0.550207  1 O  pz                 9      0.394747  1 O  pz         
     3      0.339553  1 O  s                 16     -0.181299  2 H  s          
    21     -0.181299  3 H  s          

 Vector    5  Occ=1.000000D+00  E=-2.113586D-01  Symmetry=b2
              MO Center=  1.9D-17,  3.5D-19,  9.3D-02, r^2= 6.0D-01
   Bfn.  Coefficient  Atom+Function         Bfn.  Coefficient  Atom+Function  
  ----- ------------  ---------------      ----- ------------  ---------------
     5      0.634750  1 O  py                 8      0.500528  1 O  py         

 Vector    6  Occ=0.000000D+00  E=-2.265022D-02  Symmetry=a1
              MO Center= -1.2D-16,  1.9D-21, -4.4D-01, r^2= 2.6D+00
   Bfn.  Coefficient  Atom+Function         Bfn.  Coefficient  Atom+Function  
  ----- ------------  ---------------      ----- ------------  ---------------
     3      0.768852  1 O  s                 17     -0.632828  2 H  s          
    22     -0.632828  3 H  s                  9     -0.319317  1 O  pz         
     6     -0.307944  1 O  pz                16     -0.240502  2 H  s          
    21     -0.240502  3 H  s                  2      0.169508  1 O  s          

 Vector    7  Occ=0.000000D+00  E= 5.897910D-02  Symmetry=b1
              MO Center= -1.3D-16, -1.7D-32, -4.5D-01, r^2= 2.9D+00
   Bfn.  Coefficient  Atom+Function         Bfn.  Coefficient  Atom+Function  
  ----- ------------  ---------------      ----- ------------  ---------------
    17      0.927458  2 H  s                 22     -0.927458  3 H  s          
     7      0.574129  1 O  px                 4      0.450714  1 O  px         
    16      0.182254  2 H  s                 21     -0.182254  3 H  s          

 Vector    8  Occ=0.000000D+00  E= 4.353794D-01  Symmetry=a1
              MO Center=  1.9D-15,  1.7D-17, -5.2D-01, r^2= 2.4D+00
   Bfn.  Coefficient  Atom+Function         Bfn.  Coefficient  Atom+Function  
  ----- ------------  ---------------      ----- ------------  ---------------
    16      0.883854  2 H  s                 21      0.883854  3 H  s          
    17     -0.760421  2 H  s                 22     -0.760421  3 H  s          
     3      0.336233  1 O  s                  6      0.224292  1 O  pz         
     2     -0.160272  1 O  s          

 Vector    9  Occ=0.000000D+00  E= 4.922238D-01  Symmetry=b1
              MO Center= -2.2D-15, -4.0D-18, -3.7D-01, r^2= 2.8D+00
   Bfn.  Coefficient  Atom+Function         Bfn.  Coefficient  Atom+Function  
  ----- ------------  ---------------      ----- ------------  ---------------
    17      1.011871  2 H  s                 22     -1.011871  3 H  s          
    16     -0.899915  2 H  s                 21      0.899915  3 H  s          
     4     -0.339890  1 O  px         

 Vector   10  Occ=0.000000D+00  E= 8.332108D-01  Symmetry=a1
              MO Center= -2.8D-16,  1.8D-21,  1.1D-01, r^2= 1.2D+00
   Bfn.  Coefficient  Atom+Function         Bfn.  Coefficient  Atom+Function  
  ----- ------------  ---------------      ----- ------------  ---------------
     9      1.039709  1 O  pz                 6     -0.847535  1 O  pz         
     3     -0.293967  1 O  s                 16      0.236511  2 H  s          
    20      0.235570  2 H  pz                21      0.236511  3 H  s          
    25      0.235570  3 H  pz         

 Vector   11  Occ=0.000000D+00  E= 8.476422D-01  Symmetry=b2
              MO Center=  6.0D-17, -7.3D-22,  4.7D-02, r^2= 1.1D+00
   Bfn.  Coefficient  Atom+Function         Bfn.  Coefficient  Atom+Function  
  ----- ------------  ---------------      ----- ------------  ---------------
     5      0.945298  1 O  py                 8     -0.931464  1 O  py         

 Vector   12  Occ=0.000000D+00  E= 9.289128D-01  Symmetry=b1
              MO Center= -6.0D-17, -3.5D-32,  1.2D-01, r^2= 1.6D+00
   Bfn.  Coefficient  Atom+Function         Bfn.  Coefficient  Atom+Function  
  ----- ------------  ---------------      ----- ------------  ---------------
     7      1.572209  1 O  px                 4     -0.708998  1 O  px         
    17      0.540067  2 H  s                 22     -0.540067  3 H  s          
    16      0.365664  2 H  s                 21     -0.365664  3 H  s          
    18      0.347628  2 H  px                23      0.347628  3 H  px         

 Vector   13  Occ=0.000000D+00  E= 1.127708D+00  Symmetry=a2
              MO Center=  3.3D-15,  1.7D-16, -4.1D-01, r^2= 1.4D+00
   Bfn.  Coefficient  Atom+Function         Bfn.  Coefficient  Atom+Function  
  ----- ------------  ---------------      ----- ------------  ---------------
    19      0.672384  2 H  py                24     -0.672384  3 H  py         
    11     -0.269728  1 O  dxy        

 Vector   14  Occ=0.000000D+00  E= 1.213461D+00  Symmetry=a1
              MO Center=  1.7D-15, -5.2D-18,  4.5D-02, r^2= 1.6D+00
   Bfn.  Coefficient  Atom+Function         Bfn.  Coefficient  Atom+Function  
  ----- ------------  ---------------      ----- ------------  ---------------
     3      1.949641  1 O  s                  2     -1.084776  1 O  s          
     1     -0.510369  1 O  s                 20     -0.426534  2 H  pz         
    25     -0.426534  3 H  pz                17     -0.365774  2 H  s          
    22     -0.365774  3 H  s                 10     -0.302636  1 O  dxx        
     9      0.233419  1 O  pz                13     -0.195345  1 O  dyy        

 Vector   15  Occ=0.000000D+00  E= 1.400783D+00  Symmetry=b2
              MO Center= -3.3D-15,  2.2D-16, -2.7D-01, r^2= 1.6D+00
   Bfn.  Coefficient  Atom+Function         Bfn.  Coefficient  Atom+Function  
  ----- ------------  ---------------      ----- ------------  ---------------
    19     -0.744984  2 H  py                24     -0.744984  3 H  py         
     8      0.683452  1 O  py                14      0.254460  1 O  dyz        
     5     -0.209316  1 O  py         


   alpha - beta orbital overlaps 
   ----------------------------- 


   alpha      1      2      3      4      5      6      7      8      9     10
    beta      1      2      3      4      5      6      7      8      9     10
 overlap   1.000  1.000  1.000  1.000  1.000  1.000  1.000  1.000  1.000  1.000


   alpha     11     12     13     14     15     16     17     18     19     20
    beta     11     12     13     14     15     16     17     18     19     20
 overlap   1.000  1.000  1.000  1.000  1.000  1.000  1.000  1.000  1.000  1.000


   alpha     21     22     23     24     25
    beta     21     22     23     24     25
 overlap   1.000  1.000  1.000  1.000  1.000

     --------------------------
     Expectation value of S2:  
     --------------------------
      <S2> =      0.0000 (Exact =     0.0000)


 center of mass
 --------------
 x =   0.00000000 y =   0.00000000 z =   0.09276948

 moments of inertia (a.u.)
 ------------------
           1.985523714464           0.000000000000           0.000000000000
           0.000000000000           8.818526119040           0.000000000000
           0.000000000000           0.000000000000           6.833002404577

     Multipole analysis of the density
     ---------------------------------

     L   x y z        total         alpha         beta         nuclear
     -   - - -        -----         -----         ----         -------
     0   0 0 0     -0.000000     -5.000000     -5.000000     10.000000

     1   1 0 0      0.000000      0.000000      0.000000      0.000000
     1   0 1 0      0.000000      0.000000      0.000000      0.000000
     1   0 0 1     -0.679268     -0.339634     -0.339634      0.000000

     2   2 0 0     -2.379761     -4.579855     -4.579855      6.779949
     2   1 1 0      0.000000      0.000000      0.000000      0.000000
     2   1 0 1     -0.000000     -0.000000      0.000000      0.000000
     2   0 2 0     -5.505865     -2.752933     -2.752933      0.000000
     2   0 1 1      0.000000      0.000000      0.000000      0.000000
     2   0 0 2     -4.813153     -3.293928     -3.293928      1.774702


 Parallel integral file used       1 records with       0 large values


 Task  times  cpu:        0.2s     wall:        0.2s
 Summary of allocated global arrays
-----------------------------------
  No active global arrays



                         GA Statistics for process    0
                         ------------------------------

       create   destroy   get      put      acc     scatter   gather  read&inc
calls: 1101     1101     1.75e+04 5875     7899       98        0     1198     
number of processes/call 1.00e+00 1.00e+00 1.00e+00 0.00e+00 0.00e+00
bytes total:             1.10e+07 4.68e+06 4.89e+06 8.00e+02 0.00e+00 9.58e+03
bytes remote:            0.00e+00 0.00e+00 0.00e+00 0.00e+00 0.00e+00 0.00e+00
Max memory consumed for GA by this process: 325000 bytes
MA_summarize_allocated_blocks: starting scan ...
MA_summarize_allocated_blocks: scan completed: 0 heap blocks, 0 stack blocks
MA usage statistics:

	allocation statistics:
					      heap	     stack
					      ----	     -----
	current number of blocks	         0	         0
	maximum number of blocks	        24	        53
	current total bytes		         0	         0
	maximum total bytes		   2636520	  22511496
	maximum total K-bytes		      2637	     22512
	maximum total M-bytes		         3	        23


                                NWChem Input Module
                                -------------------





                                     CITATION
                                     --------
                Please cite the following reference when publishing
                           results obtained with NWChem:

                 M. Valiev, E.J. Bylaska, N. Govind, K. Kowalski,
              T.P. Straatsma, H.J.J. van Dam, D. Wang, J. Nieplocha,
                        E. Apra, T.L. Windus, W.A. de Jong
                 "NWChem: a comprehensive and scalable open-source
                  solution for large scale molecular simulations"
                      Comput. Phys. Commun. 181, 1477 (2010)
                           doi:10.1016/j.cpc.2010.04.018

                                      AUTHORS
                                      -------
          E. Apra, E. J. Bylaska, W. A. de Jong, N. Govind, K. Kowalski,
       T. P. Straatsma, M. Valiev, H. J. J. van Dam, D. Wang, T. L. Windus,
        J. Hammond, J. Autschbach, K. Bhaskaran-Nair, J. Brabec, K. Lopata,
        S. Krishnamoorthy, W. Ma, M. Klemm, O. Villa, Y. Chen, V. Anisimov,
    F. Aquino, S. Hirata, M. T. Hackler, T. Risthaus, M. Malagoli, A. Marenich,
   A. Otero-de-la-Roza, J. Mullin, P. Nichols, R. Peverati, J. Pittner, Y. Zhao,
          P.-D. Fan, A. Fonari, M. Williamson, R. J. Harrison, M. Dupuis,
     D. Silverstein, D. M. A. Smith, J. Nieplocha, V. Tipparaju, M. Krishnan,
       B. E. Van Kuiken, A. Vazquez-Mayagoitia, L. Jensen, M. Swart, Q. Wu,
   T. Van Voorhis, A. A. Auer, M. Nooijen, L. D. Crosby, E. Brown, G. Cisneros,
     G. I. Fann, H. Fruchtl, J. Garza, K. Hirao, R. A. Kendall, J. A. Nichols,
       K. Tsemekhman, K. Wolinski, J. Anchell, D. E. Bernholdt, P. Borowski,
       T. Clark, D. Clerc, H. Dachsel, M. J. O. Deegan, K. Dyall, D. Elwood,
      E. Glendening, M. Gutowski, A. C. Hess, J. Jaffe, B. G. Johnson, J. Ju,
        R. Kobayashi, R. Kutteh, Z. Lin, R. Littlefield, X. Long, B. Meng,
      T. Nakajima, S. Niu, L. Pollack, M. Rosing, K. Glaesemann, G. Sandrone,
      M. Stave, H. Taylor, G. Thomas, J. H. van Lenthe, A. T. Wong, Z. Zhang.

 Total times  cpu:        0.3s     wall:        0.4s
